 vasp.4.6.36 17Feb09 complex 
 executed on             LinuxIFC date 2022.09.26  10:26:11
 running on   12 nodes
 distr:  one band on    1 nodes,   12 groups


--------------------------------------------------------------------------------------------------------


 INCAR:
 POTCAR:   PAW_GGA Ir 04May1998                   
 POTCAR:   PAW_GGA In 25Jul2001                   
 POTCAR:   PAW_GGA Ir 04May1998                   
   VRHFIN =Ir: s1d8                                                             
   LEXCH  = 91                                                                  
   EATOM  =   561.0228 eV,   41.2340 Ry                                         
                                                                                
   TITEL  = PAW_GGA Ir 04May1998                                                
   LULTRA =        F    use ultrasoft PP ?                                      
   IUNSCR =        1    unscreen: 0-lin 1-nonlin 2-no                           
   RPACOR =    2.250    partial core radius                                     
   POMASS =  192.220; ZVAL   =    9.000    mass and valenz                      
   RCORE  =    2.600    outmost cutoff radius                                   
   RWIGS  =    2.690; RWIGS  =    1.423    wigner-seitz radius (au A)           
   ENMAX  =  210.865; ENMIN  =  158.149 eV                                      
   RCLOC  =    1.857    cutoff for local pot                                    
   LCOR   =        T    correct aug charges                                     
   LPAW   =        T    paw PP                                                  
   EAUG   =  318.962                                                            
   DEXC   =    -.009                                                            
   RMAX   =    3.175    core radius for proj-oper                               
   RAUG   =    1.300    factor for augmentation sphere                          
   RDEP   =    2.748    core radius for depl-charge                             
   QCUT   =   -3.937; QGAM   =    7.874    optimization parameters              
                                                                                
   Description                                                                  
     l     E      TYP  RCUT    TYP  RCUT                                        
     2   .000     23  2.600                                                     
     2   .000     23  2.600                                                     
     0   .000     23  2.600                                                     
     0   .000     23  2.600                                                     
     1  -.200     23  2.600                                                     
     1  1.500     23  2.600                                                     
     3   .000      7   .000                                                     
  local pseudopotential read in
  partial core-charges read in
  atomic valenz-charges read in
  non local Contribution for L=           2  read in
    real space projection operators read in
  non local Contribution for L=           2  read in
    real space projection operators read in
  non local Contribution for L=           0  read in
    real space projection operators read in
  non local Contribution for L=           0  read in
    real space projection operators read in
  non local Contribution for L=           1  read in
    real space projection operators read in
  non local Contribution for L=           1  read in
    real space projection operators read in
    PAW grid and wavefunctions read in
 
   number of l-projection  operators is LMAX  =           6
   number of lm-projection operators is LMMAX =          18
 
 POTCAR:   PAW_GGA In 25Jul2001                   
   VRHFIN =In: s2p1                                                             
   LEXCH  = 91                                                                  
   EATOM  =    53.9706 eV,    3.9667 Ry                                         
                                                                                
   TITEL  = PAW_GGA In 25Jul2001                                                
   LULTRA =        F    use ultrasoft PP ?                                      
   IUNSCR =        1    unscreen: 0-lin 1-nonlin 2-no                           
   RPACOR =    2.400    partial core radius                                     
   POMASS =  114.820; ZVAL   =    3.000    mass and valenz                      
   RCORE  =    3.100    outmost cutoff radius                                   
   RWIGS  =    3.170; RWIGS  =    1.677    wigner-seitz radius (au A)           
   ENMAX  =   95.997; ENMIN  =   71.997 eV                                      
   ICORE  =        3    local potential                                         
   LCOR   =        T    correct aug charges                                     
   LPAW   =        T    paw PP                                                  
   EAUG   =  237.125                                                            
   DEXC   =    -.081                                                            
   RMAX   =    4.706    core radius for proj-oper                               
   RAUG   =    1.300    factor for augmentation sphere                          
   RDEP   =    3.187    radius for radial grids                                 
   QCUT   =   -2.656; QGAM   =    5.312    optimization parameters              
                                                                                
   Description                                                                  
     l     E      TYP  RCUT    TYP  RCUT                                        
     0   .000     23  3.100                                                     
     0   .000     23  3.100                                                     
     1   .000     23  3.100                                                     
     1   .000     23  3.100                                                     
     2  -.100     23  3.100                                                     
     3  -.100     23  3.100                                                     
  local pseudopotential read in
  partial core-charges read in
  atomic valenz-charges read in
  non local Contribution for L=           0  read in
    real space projection operators read in
  non local Contribution for L=           0  read in
    real space projection operators read in
  non local Contribution for L=           1  read in
    real space projection operators read in
  non local Contribution for L=           1  read in
    real space projection operators read in
  non local Contribution for L=           2  read in
    real space projection operators read in
    PAW grid and wavefunctions read in
 
   number of l-projection  operators is LMAX  =           5
   number of lm-projection operators is LMMAX =          13
 
 PAW_GGA Ir 04May1998                   :
 energy of atom  1       EATOM= -561.0228
 kinetic energy error for atom=    0.0380 (will be added to EATOM!!)
 PAW_GGA In 25Jul2001                   :
 energy of atom  2       EATOM=  -53.9706
 kinetic energy error for atom=    0.0001 (will be added to EATOM!!)
 
 EXHCAR: internal setup
 exchange correlation table for  LEXCH =        7
   RHO(1)=    0.500       N(1)  =     2000
   RHO(2)=  100.500       N(2)  =     4000
 
 POSCAR: In3 Ir1                                 
  positions in direct lattice
  velocities in cartesian coordinates
 


--------------------------------------------------------------------------------------------------------


 ion  position               nearest neighbor table
   1  0.346  0.346  0.000-   5 2.65   8 2.65   9 2.65  12 2.65  13 2.77  15 2.77  14 2.77  16 2.77
                             2 3.05
   2  0.654  0.654  0.000-   5 2.65   8 2.65  11 2.65  10 2.65  13 2.77  15 2.77  14 2.77  16 2.77
                             1 3.05
   3  0.154  0.846  0.500-   6 2.65   7 2.65  16 2.65  13 2.65  12 2.77  10 2.77   9 2.77  11 2.77
                             4 3.05
   4  0.846  0.154  0.500-   7 2.65   6 2.65  14 2.65  15 2.65  12 2.77  10 2.77   9 2.77  11 2.77
                             3 3.05
   5  0.000  0.500  0.000-   1 2.65   2 2.65  13 3.19  15 3.19  14 3.19  16 3.19  11 3.23   9 3.23
                            10 3.23  12 3.23   6 3.60   6 3.60
   6  0.000  0.500  0.500-   3 2.65   4 2.65  10 3.19  12 3.19  11 3.19   9 3.19  14 3.23  16 3.23
                            15 3.23  13 3.23   5 3.60   5 3.60
   7  0.500  0.000  0.500-   4 2.65   3 2.65  10 3.19  12 3.19  11 3.19   9 3.19  14 3.23  16 3.23
                            15 3.23  13 3.23   8 3.60   8 3.60
   8  0.500  0.000  0.000-   1 2.65   2 2.65  13 3.19  15 3.19  14 3.19  16 3.19  11 3.23   9 3.23
                            10 3.23  12 3.23   7 3.60   7 3.60
   9  0.151  0.151  0.254-   1 2.65   3 2.77   4 2.77  11 3.00   7 3.19   6 3.19   8 3.23   5 3.23
                            12 3.53  12 3.66  16 3.76  14 3.76  14 3.76  16 3.76
  10  0.849  0.849  0.746-   2 2.65   3 2.77   4 2.77  12 3.00   7 3.19   6 3.19   8 3.23   5 3.23
                            11 3.53  11 3.66  13 3.76  15 3.76  13 3.76  15 3.76
  11  0.849  0.849  0.254-   2 2.65   3 2.77   4 2.77   9 3.00   7 3.19   6 3.19   8 3.23   5 3.23
                            10 3.53  10 3.66  16 3.76  14 3.76  16 3.76  14 3.76
  12  0.151  0.151  0.746-   1 2.65   3 2.77   4 2.77  10 3.00   7 3.19   6 3.19   8 3.23   5 3.23
                             9 3.53   9 3.66  13 3.76  15 3.76  15 3.76  13 3.76
  13  0.349  0.651  0.754-   3 2.65   2 2.77   1 2.77  15 3.00   8 3.19   5 3.19   6 3.23   7 3.23
                            16 3.53  16 3.66  10 3.76  12 3.76  10 3.76  12 3.76
  14  0.651  0.349  0.246-   4 2.65   2 2.77   1 2.77  16 3.00   8 3.19   5 3.19   6 3.23   7 3.23
                            15 3.53  15 3.66  11 3.76   9 3.76  11 3.76   9 3.76
  15  0.651  0.349  0.754-   4 2.65   2 2.77   1 2.77  13 3.00   8 3.19   5 3.19   6 3.23   7 3.23
                            14 3.53  14 3.66  10 3.76  12 3.76  10 3.76  12 3.76
  16  0.349  0.651  0.246-   3 2.65   2 2.77   1 2.77  14 3.00   8 3.19   5 3.19   6 3.23   7 3.23
                            13 3.53  13 3.66  11 3.76   9 3.76  11 3.76   9 3.76
 
  LATTYP: Found a simple tetragonal cell.
 ALAT       =     6.9932999611
 C/A-ratio  =     1.0282413496
  
  Lattice vectors:
  
 A1 = (   6.9932999611,   0.0000000000,   0.0000000000)
 A2 = (   0.0000000000,   6.9932999611,   0.0000000000)
 A3 = (   0.0000000000,   0.0000000000,   7.1908001900)
 Subroutine PRICEL returns:
 Original cell was already a primitive cell.
 

Analysis of symmetry for initial positions (statically):

 Routine SETGRP: Setting up the symmetry group for a 
 simple tetragonal supercell.


 Subroutine GETGRP returns: Found 16 space group operations
 (whereof  8 operations were pure point group operations)
 out of a pool of 16 trial point group operations.


The static configuration has the point symmetry D_2h.
 The point group associated with its full space group is D_4h.

Analysis of symmetry for dynamics (positions and initial velocities):

 Subroutine DYNSYM returns: Found 16 space group operations
 (whereof  8 operations were pure point group operations)
 out of a pool of 16 trial space group operations
 (whereof  8 operations were pure point group operations)
 and found also     1 'primitive' translations


The dynamic configuration has the point symmetry D_2h.
 The point group associated with its full space group is D_4h.
 
 
 KPOINTS: rIn3                                    

Automatic generation of k-mesh.
 
 Subroutine IBZKPT returns following result:
 ===========================================
 
 Found     75 irreducible k-points:
 
 Following reciprocal coordinates:
            Coordinates               Weight
  0.000000  0.000000  0.000000      1.000000
  0.111111  0.000000  0.000000      4.000000
  0.222222  0.000000  0.000000      4.000000
  0.333333  0.000000  0.000000      4.000000
  0.444444  0.000000  0.000000      4.000000
  0.111111  0.111111  0.000000      4.000000
  0.222222  0.111111  0.000000      8.000000
  0.333333  0.111111  0.000000      8.000000
  0.444444  0.111111  0.000000      8.000000
  0.222222  0.222222  0.000000      4.000000
  0.333333  0.222222  0.000000      8.000000
  0.444444  0.222222  0.000000      8.000000
  0.333333  0.333333  0.000000      4.000000
  0.444444  0.333333  0.000000      8.000000
  0.444444  0.444444  0.000000      4.000000
  0.000000  0.000000  0.111111      2.000000
  0.111111  0.000000  0.111111      8.000000
  0.222222  0.000000  0.111111      8.000000
  0.333333  0.000000  0.111111      8.000000
  0.444444  0.000000  0.111111      8.000000
  0.111111  0.111111  0.111111      8.000000
  0.222222  0.111111  0.111111     16.000000
  0.333333  0.111111  0.111111     16.000000
  0.444444  0.111111  0.111111     16.000000
  0.222222  0.222222  0.111111      8.000000
  0.333333  0.222222  0.111111     16.000000
  0.444444  0.222222  0.111111     16.000000
  0.333333  0.333333  0.111111      8.000000
  0.444444  0.333333  0.111111     16.000000
  0.444444  0.444444  0.111111      8.000000
  0.000000  0.000000  0.222222      2.000000
  0.111111  0.000000  0.222222      8.000000
  0.222222  0.000000  0.222222      8.000000
  0.333333  0.000000  0.222222      8.000000
  0.444444  0.000000  0.222222      8.000000
  0.111111  0.111111  0.222222      8.000000
  0.222222  0.111111  0.222222     16.000000
  0.333333  0.111111  0.222222     16.000000
  0.444444  0.111111  0.222222     16.000000
  0.222222  0.222222  0.222222      8.000000
  0.333333  0.222222  0.222222     16.000000
  0.444444  0.222222  0.222222     16.000000
  0.333333  0.333333  0.222222      8.000000
  0.444444  0.333333  0.222222     16.000000
  0.444444  0.444444  0.222222      8.000000
  0.000000  0.000000  0.333333      2.000000
  0.111111  0.000000  0.333333      8.000000
  0.222222  0.000000  0.333333      8.000000
  0.333333  0.000000  0.333333      8.000000
  0.444444  0.000000  0.333333      8.000000
  0.111111  0.111111  0.333333      8.000000
  0.222222  0.111111  0.333333     16.000000
  0.333333  0.111111  0.333333     16.000000
  0.444444  0.111111  0.333333     16.000000
  0.222222  0.222222  0.333333      8.000000
  0.333333  0.222222  0.333333     16.000000
  0.444444  0.222222  0.333333     16.000000
  0.333333  0.333333  0.333333      8.000000
  0.444444  0.333333  0.333333     16.000000
  0.444444  0.444444  0.333333      8.000000
  0.000000  0.000000  0.444444      2.000000
  0.111111  0.000000  0.444444      8.000000
  0.222222  0.000000  0.444444      8.000000
  0.333333  0.000000  0.444444      8.000000
  0.444444  0.000000  0.444444      8.000000
  0.111111  0.111111  0.444444      8.000000
  0.222222  0.111111  0.444444     16.000000
  0.333333  0.111111  0.444444     16.000000
  0.444444  0.111111  0.444444     16.000000
  0.222222  0.222222  0.444444      8.000000
  0.333333  0.222222  0.444444     16.000000
  0.444444  0.222222  0.444444     16.000000
  0.333333  0.333333  0.444444      8.000000
  0.444444  0.333333  0.444444     16.000000
  0.444444  0.444444  0.444444      8.000000
 
 Following cartesian coordinates:
            Coordinates               Weight
  0.000000  0.000000  0.000000      1.000000
  0.015888  0.000000  0.000000      4.000000
  0.031776  0.000000  0.000000      4.000000
  0.047665  0.000000  0.000000      4.000000
  0.063553  0.000000  0.000000      4.000000
  0.015888  0.015888  0.000000      4.000000
  0.031776  0.015888  0.000000      8.000000
  0.047665  0.015888  0.000000      8.000000
  0.063553  0.015888  0.000000      8.000000
  0.031776  0.031776  0.000000      4.000000
  0.047665  0.031776  0.000000      8.000000
  0.063553  0.031776  0.000000      8.000000
  0.047665  0.047665  0.000000      4.000000
  0.063553  0.047665  0.000000      8.000000
  0.063553  0.063553  0.000000      4.000000
  0.000000  0.000000  0.015452      2.000000
  0.015888  0.000000  0.015452      8.000000
  0.031776  0.000000  0.015452      8.000000
  0.047665  0.000000  0.015452      8.000000
  0.063553  0.000000  0.015452      8.000000
  0.015888  0.015888  0.015452      8.000000
  0.031776  0.015888  0.015452     16.000000
  0.047665  0.015888  0.015452     16.000000
  0.063553  0.015888  0.015452     16.000000
  0.031776  0.031776  0.015452      8.000000
  0.047665  0.031776  0.015452     16.000000
  0.063553  0.031776  0.015452     16.000000
  0.047665  0.047665  0.015452      8.000000
  0.063553  0.047665  0.015452     16.000000
  0.063553  0.063553  0.015452      8.000000
  0.000000  0.000000  0.030904      2.000000
  0.015888  0.000000  0.030904      8.000000
  0.031776  0.000000  0.030904      8.000000
  0.047665  0.000000  0.030904      8.000000
  0.063553  0.000000  0.030904      8.000000
  0.015888  0.015888  0.030904      8.000000
  0.031776  0.015888  0.030904     16.000000
  0.047665  0.015888  0.030904     16.000000
  0.063553  0.015888  0.030904     16.000000
  0.031776  0.031776  0.030904      8.000000
  0.047665  0.031776  0.030904     16.000000
  0.063553  0.031776  0.030904     16.000000
  0.047665  0.047665  0.030904      8.000000
  0.063553  0.047665  0.030904     16.000000
  0.063553  0.063553  0.030904      8.000000
  0.000000  0.000000  0.046356      2.000000
  0.015888  0.000000  0.046356      8.000000
  0.031776  0.000000  0.046356      8.000000
  0.047665  0.000000  0.046356      8.000000
  0.063553  0.000000  0.046356      8.000000
  0.015888  0.015888  0.046356      8.000000
  0.031776  0.015888  0.046356     16.000000
  0.047665  0.015888  0.046356     16.000000
  0.063553  0.015888  0.046356     16.000000
  0.031776  0.031776  0.046356      8.000000
  0.047665  0.031776  0.046356     16.000000
  0.063553  0.031776  0.046356     16.000000
  0.047665  0.047665  0.046356      8.000000
  0.063553  0.047665  0.046356     16.000000
  0.063553  0.063553  0.046356      8.000000
  0.000000  0.000000  0.061807      2.000000
  0.015888  0.000000  0.061807      8.000000
  0.031776  0.000000  0.061807      8.000000
  0.047665  0.000000  0.061807      8.000000
  0.063553  0.000000  0.061807      8.000000
  0.015888  0.015888  0.061807      8.000000
  0.031776  0.015888  0.061807     16.000000
  0.047665  0.015888  0.061807     16.000000
  0.063553  0.015888  0.061807     16.000000
  0.031776  0.031776  0.061807      8.000000
  0.047665  0.031776  0.061807     16.000000
  0.063553  0.031776  0.061807     16.000000
  0.047665  0.047665  0.061807      8.000000
  0.063553  0.047665  0.061807     16.000000
  0.063553  0.063553  0.061807      8.000000
 
 TETIRR: Found   1075 inequivalent tetrahedra from     4374


--------------------------------------------------------------------------------------------------------




 Dimension of arrays:
   k-Points           NKPTS =     75   number of bands    NBANDS=     48
   number of dos      NEDOS =    301   number of ions     NIONS =     16
   non local maximal  LDIM  =      6   non local SUM 2l+1 LMDIM =     18
   total plane-waves  NPLWV =  64000
   max r-space proj   IRMAX =      1   max aug-charges    IRDMAX=   6747
   dimension x,y,z NGX =    40 NGY =   40 NGZ =   40
   dimension x,y,z NGXF=    54 NGYF=   54 NGZF=   56
   support grid    NGXF=    54 NGYF=   54 NGZF=   56
   ions per type =               4  12
 NGX,Y,Z   is equivalent  to a cutoff of   9.51,  9.51,  9.25 a.u.
 NGXF,Y,Z  is equivalent  to a cutoff of  12.84, 12.84, 12.95 a.u.


 I would recommend the setting:
   dimension x,y,z NGX =    37 NGY =   37 NGZ =   38
 SYSTEM =  CoGa3                                   
 POSCAR =  In3 Ir1                                 

 Startparameter for this run:
   NWRITE =      2    write-flag & timer
   PREC   = high      medium, high low
   ISTART =      0    job   : 0-new  1-cont  2-samecut
   ICHARG =      2    charge: 1-file 2-atom 10-const
   ISPIN  =      1    spin polarized calculation?
   LNONCOLLINEAR =      F non collinear calculations
   LSORBIT =      F    spin-orbit coupling
   INIWAV =      1    electr: 0-lowe 1-rand  2-diag
   LASPH  =      F    aspherical Exc in radial PAW
   METAGGA=      F    non-selfconsistent MetaGGA calc.

 Electronic Relaxation 1
   ENCUT  =  263.6 eV  19.37 Ry    4.40 a.u.   9.26  9.26  9.52*2*pi/ulx,y,z
   ENINI  =  263.6     initial cutoff
   ENAUG  =  319.0 eV  augmentation charge cutoff
   NELM   =     60;   NELMIN=  2; NELMDL= -5     # of ELM steps 
   EDIFF  = 0.1E-04   stopping-criterion for ELM
   LREAL  =      F    real-space projection
   LCOMPAT=      F    compatible to vasp.4.4
   LREAL_COMPAT= F    compatible to vasp.4.5.1-3
   GGA_COMPAT  = T    GGA compatible to vasp.4.4-vasp.4.6
   LMAXPAW     = -100 max onsite density
   LMAXMIX     =    2 max onsite mixed and CHGCAR
   VOSKOWN=      0    Vosko Wilk Nusair interpolation
   ROPT   =    0.00000   0.00000
 Ionic relaxation
   EDIFFG = 0.1E-03   stopping-criterion for IOM
   NSW    =      0    number of steps for IOM
   NBLOCK =      1;   KBLOCK =      1    inner block; outer block 
   IBRION =     -1    ionic relax: 0-MD 1-quasi-New 2-CG
   NFREE  =      0    steps in history (QN), initial steepest desc. (CG)
   ISIF   =      2    stress and relaxation
   IWAVPR =     11    prediction:  0-non 1-charg 2-wave 3-comb
   ISYM   =      1    0-nonsym 1-usesym 2-fastsym
   LCORR  =      T    Harris-Foulkes like correction to forces

   POTIM  =   0.50    time-step for ionic-motion
   TEIN   =    0.0    initial temperature
   TEBEG  =    0.0;   TEEND  =   0.0 temperature during run
   SMASS  =  -3.00    Nose mass-parameter (am)
   estimated Nose-frequenzy (Omega)   =  0.10E-29 period in steps =****** mass=  -0.112E-26a.u.
   NPACO  =    256;   APACO  = 16.0  distance and # of slots for P.C.
   PSTRESS=    0.0 pullay stress

  Mass of Ions in am
   POMASS = 192.22114.82
  Ionic Valenz
   ZVAL   =   9.00  3.00
  Atomic Wigner-Seitz radii
   RWIGS  =  -1.00 -1.00
   NELECT =      72.0000    total number of electrons
   NUPDOWN=      -1.0000    fix difference up-down

 DOS related values:
   EMIN   =  10.00;   EMAX   =-10.00  energy-range for DOS
   ISMEAR =    -5;   SIGMA  =   0.03  broadening in eV -4-tet -1-fermi 0-gaus

 Electronic relaxation 2 (details)
   IALGO  =     38    algorithm
   LDIAG  =      T    sub-space diagonalisation
   IMIX   =      4    mixing-type and parameters
     AMIX     =   0.40;   BMIX     =  1.00
     AMIX_MAG =   1.60;   BMIX_MAG =  1.00
     AMIN     =   0.10
     WC   =   100.;   INIMIX=   1;  MIXPRE=   1

 Intra band minimization:
   WEIMIN = 0.0000     energy-eigenvalue tresh-hold
   EBREAK =  0.56E-07  absolut break condition
   DEPER  =   0.30     relativ break condition  

   TIME   =   0.10     timestep for ELM

  volume/ion in A,a.u.               =      21.98       148.33
  Fermi-wavevector in a.u.,eV,Ry     =   0.964877 12.666848  0.930987

 Second variation
   LSECVAR=     F    do a second variation
 
 Write flags
   LWAVE  =      F    write WAVECAR
   LCHARG =      F    write CHGCAR
   LVTOT  =      F    write LOCPOT, local potential
   LELF   =      F    write electronic localiz. function (ELF)
   LORBIT =      0    0 simple, 1 ext, 2 COOP (PROOUT)


 Dipole corrections
   IDIPOL =      0    1-x, 2-y, 3-z
   LDIPOL =      F    correct potential



--------------------------------------------------------------------------------------------------------


 Static calculation
 charge density will be updated during run
 non-spin polarized calculation
 Variant of blocked Davidson
 Davidson routine will perform the subspace rotation
 performe sub-space diagonalisation
    after iterative eigenvector-optimisation
 modified Broyden-mixing scheme, WC =      100.0
 initial mixing is a Kerker type mixing with AMIX =  0.4000 and BMIX =      1.0000
 Hartree-type preconditioning will be used
 using additional bands           12
 reciprocal scheme for non local part
 use partial core corrections
 calculate Harris-corrections to forces 
   (improved forces if not selfconsistent)
 use gradient corrections 
 use of overlap-Matrix (Vanderbilt PP)
 Fermi weights with tetrahedron method with Bloechl corrections


--------------------------------------------------------------------------------------------------------


  energy-cutoff  :      263.58
  volume of cell :      351.68
      direct lattice vectors                 reciprocal lattice vectors
     6.993299961  0.000000000  0.000000000     0.142994009  0.000000000  0.000000000
     0.000000000  6.993299961  0.000000000     0.000000000  0.142994009  0.000000000
     0.000000000  0.000000000  7.190800190     0.000000000  0.000000000  0.139066581

  length of vectors
     6.993299961  6.993299961  7.190800190     0.142994009  0.142994009  0.139066581


 
 k-points in units of 2pi/SCALE and weight: rIn3                                    
   0.00000000  0.00000000  0.00000000       0.001
   0.01588822  0.00000000  0.00000000       0.005
   0.03177645  0.00000000  0.00000000       0.005
   0.04766467  0.00000000  0.00000000       0.005
   0.06355289  0.00000000  0.00000000       0.005
   0.01588822  0.01588822  0.00000000       0.005
   0.03177645  0.01588822  0.00000000       0.011
   0.04766467  0.01588822  0.00000000       0.011
   0.06355289  0.01588822  0.00000000       0.011
   0.03177645  0.03177645  0.00000000       0.005
   0.04766467  0.03177645  0.00000000       0.011
   0.06355289  0.03177645  0.00000000       0.011
   0.04766467  0.04766467  0.00000000       0.005
   0.06355289  0.04766467  0.00000000       0.011
   0.06355289  0.06355289  0.00000000       0.005
   0.00000000  0.00000000  0.01545184       0.003
   0.01588822  0.00000000  0.01545184       0.011
   0.03177645  0.00000000  0.01545184       0.011
   0.04766467  0.00000000  0.01545184       0.011
   0.06355289  0.00000000  0.01545184       0.011
   0.01588822  0.01588822  0.01545184       0.011
   0.03177645  0.01588822  0.01545184       0.022
   0.04766467  0.01588822  0.01545184       0.022
   0.06355289  0.01588822  0.01545184       0.022
   0.03177645  0.03177645  0.01545184       0.011
   0.04766467  0.03177645  0.01545184       0.022
   0.06355289  0.03177645  0.01545184       0.022
   0.04766467  0.04766467  0.01545184       0.011
   0.06355289  0.04766467  0.01545184       0.022
   0.06355289  0.06355289  0.01545184       0.011
   0.00000000  0.00000000  0.03090368       0.003
   0.01588822  0.00000000  0.03090368       0.011
   0.03177645  0.00000000  0.03090368       0.011
   0.04766467  0.00000000  0.03090368       0.011
   0.06355289  0.00000000  0.03090368       0.011
   0.01588822  0.01588822  0.03090368       0.011
   0.03177645  0.01588822  0.03090368       0.022
   0.04766467  0.01588822  0.03090368       0.022
   0.06355289  0.01588822  0.03090368       0.022
   0.03177645  0.03177645  0.03090368       0.011
   0.04766467  0.03177645  0.03090368       0.022
   0.06355289  0.03177645  0.03090368       0.022
   0.04766467  0.04766467  0.03090368       0.011
   0.06355289  0.04766467  0.03090368       0.022
   0.06355289  0.06355289  0.03090368       0.011
   0.00000000  0.00000000  0.04635553       0.003
   0.01588822  0.00000000  0.04635553       0.011
   0.03177645  0.00000000  0.04635553       0.011
   0.04766467  0.00000000  0.04635553       0.011
   0.06355289  0.00000000  0.04635553       0.011
   0.01588822  0.01588822  0.04635553       0.011
   0.03177645  0.01588822  0.04635553       0.022
   0.04766467  0.01588822  0.04635553       0.022
   0.06355289  0.01588822  0.04635553       0.022
   0.03177645  0.03177645  0.04635553       0.011
   0.04766467  0.03177645  0.04635553       0.022
   0.06355289  0.03177645  0.04635553       0.022
   0.04766467  0.04766467  0.04635553       0.011
   0.06355289  0.04766467  0.04635553       0.022
   0.06355289  0.06355289  0.04635553       0.011
   0.00000000  0.00000000  0.06180737       0.003
   0.01588822  0.00000000  0.06180737       0.011
   0.03177645  0.00000000  0.06180737       0.011
   0.04766467  0.00000000  0.06180737       0.011
   0.06355289  0.00000000  0.06180737       0.011
   0.01588822  0.01588822  0.06180737       0.011
   0.03177645  0.01588822  0.06180737       0.022
   0.04766467  0.01588822  0.06180737       0.022
   0.06355289  0.01588822  0.06180737       0.022
   0.03177645  0.03177645  0.06180737       0.011
   0.04766467  0.03177645  0.06180737       0.022
   0.06355289  0.03177645  0.06180737       0.022
   0.04766467  0.04766467  0.06180737       0.011
   0.06355289  0.04766467  0.06180737       0.022
   0.06355289  0.06355289  0.06180737       0.011
 
 k-points in reciprocal lattice and weights: rIn3                                    
   0.00000000  0.00000000  0.00000000       0.001
   0.11111111  0.00000000  0.00000000       0.005
   0.22222222  0.00000000  0.00000000       0.005
   0.33333333  0.00000000  0.00000000       0.005
   0.44444444  0.00000000  0.00000000       0.005
   0.11111111  0.11111111  0.00000000       0.005
   0.22222222  0.11111111  0.00000000       0.011
   0.33333333  0.11111111  0.00000000       0.011
   0.44444444  0.11111111  0.00000000       0.011
   0.22222222  0.22222222  0.00000000       0.005
   0.33333333  0.22222222  0.00000000       0.011
   0.44444444  0.22222222  0.00000000       0.011
   0.33333333  0.33333333  0.00000000       0.005
   0.44444444  0.33333333  0.00000000       0.011
   0.44444444  0.44444444  0.00000000       0.005
   0.00000000  0.00000000  0.11111111       0.003
   0.11111111  0.00000000  0.11111111       0.011
   0.22222222  0.00000000  0.11111111       0.011
   0.33333333  0.00000000  0.11111111       0.011
   0.44444444  0.00000000  0.11111111       0.011
   0.11111111  0.11111111  0.11111111       0.011
   0.22222222  0.11111111  0.11111111       0.022
   0.33333333  0.11111111  0.11111111       0.022
   0.44444444  0.11111111  0.11111111       0.022
   0.22222222  0.22222222  0.11111111       0.011
   0.33333333  0.22222222  0.11111111       0.022
   0.44444444  0.22222222  0.11111111       0.022
   0.33333333  0.33333333  0.11111111       0.011
   0.44444444  0.33333333  0.11111111       0.022
   0.44444444  0.44444444  0.11111111       0.011
   0.00000000  0.00000000  0.22222222       0.003
   0.11111111  0.00000000  0.22222222       0.011
   0.22222222  0.00000000  0.22222222       0.011
   0.33333333  0.00000000  0.22222222       0.011
   0.44444444  0.00000000  0.22222222       0.011
   0.11111111  0.11111111  0.22222222       0.011
   0.22222222  0.11111111  0.22222222       0.022
   0.33333333  0.11111111  0.22222222       0.022
   0.44444444  0.11111111  0.22222222       0.022
   0.22222222  0.22222222  0.22222222       0.011
   0.33333333  0.22222222  0.22222222       0.022
   0.44444444  0.22222222  0.22222222       0.022
   0.33333333  0.33333333  0.22222222       0.011
   0.44444444  0.33333333  0.22222222       0.022
   0.44444444  0.44444444  0.22222222       0.011
   0.00000000  0.00000000  0.33333333       0.003
   0.11111111  0.00000000  0.33333333       0.011
   0.22222222  0.00000000  0.33333333       0.011
   0.33333333  0.00000000  0.33333333       0.011
   0.44444444  0.00000000  0.33333333       0.011
   0.11111111  0.11111111  0.33333333       0.011
   0.22222222  0.11111111  0.33333333       0.022
   0.33333333  0.11111111  0.33333333       0.022
   0.44444444  0.11111111  0.33333333       0.022
   0.22222222  0.22222222  0.33333333       0.011
   0.33333333  0.22222222  0.33333333       0.022
   0.44444444  0.22222222  0.33333333       0.022
   0.33333333  0.33333333  0.33333333       0.011
   0.44444444  0.33333333  0.33333333       0.022
   0.44444444  0.44444444  0.33333333       0.011
   0.00000000  0.00000000  0.44444444       0.003
   0.11111111  0.00000000  0.44444444       0.011
   0.22222222  0.00000000  0.44444444       0.011
   0.33333333  0.00000000  0.44444444       0.011
   0.44444444  0.00000000  0.44444444       0.011
   0.11111111  0.11111111  0.44444444       0.011
   0.22222222  0.11111111  0.44444444       0.022
   0.33333333  0.11111111  0.44444444       0.022
   0.44444444  0.11111111  0.44444444       0.022
   0.22222222  0.22222222  0.44444444       0.011
   0.33333333  0.22222222  0.44444444       0.022
   0.44444444  0.22222222  0.44444444       0.022
   0.33333333  0.33333333  0.44444444       0.011
   0.44444444  0.33333333  0.44444444       0.022
   0.44444444  0.44444444  0.44444444       0.011
 
 position of ions in fractional coordinates (direct lattice) 
   0.34556369  0.34556369  0.00000000
   0.65443628  0.65443628  0.00000000
   0.15443630  0.84556369  0.50000000
   0.84556369  0.15443630  0.50000000
   0.00000000  0.50000000  0.00000000
   0.00000000  0.50000000  0.50000000
   0.50000000  0.00000000  0.50000000
   0.50000000  0.00000000  0.00000000
   0.15144336  0.15144336  0.25438939
   0.84855659  0.84855659  0.74561056
   0.84855659  0.84855659  0.25438939
   0.15144336  0.15144336  0.74561056
   0.34855662  0.65144338  0.75438941
   0.65144338  0.34855662  0.24561061
   0.65144338  0.34855662  0.75438941
   0.34855662  0.65144338  0.24561061
 
 position of ions in cartesian coordinates  (Angst):
   2.41663051  2.41663051  0.00000000
   4.57666921  4.57666921  0.00000000
   1.08001935  5.91328049  3.59540010
   5.91328049  1.08001935  3.59540010
   0.00000000  3.49664998  0.00000000
   0.00000000  3.49664998  3.59540010
   3.49664998  0.00000000  3.59540010
   3.49664998  0.00000000  0.00000000
   1.05908884  1.05908884  1.82926327
   5.93421077  5.93421077  5.36153656
   5.93421077  5.93421077  1.82926327
   1.05908884  1.05908884  5.36153656
   2.43756103  4.55573894  5.42466349
   4.55573894  2.43756103  1.76613682
   4.55573894  2.43756103  5.42466349
   2.43756103  4.55573894  1.76613682
 


--------------------------------------------------------------------------------------------------------


 k-point  1 :  0.00000.00000.0000  plane waves:   3399
 k-point  2 :  0.11110.00000.0000  plane waves:   3415
 k-point  3 :  0.22220.00000.0000  plane waves:   3429
 k-point  4 :  0.33330.00000.0000  plane waves:   3420
 k-point  5 :  0.44440.00000.0000  plane waves:   3434
 k-point  6 :  0.11110.11110.0000  plane waves:   3413
 k-point  7 :  0.22220.11110.0000  plane waves:   3424
 k-point  8 :  0.33330.11110.0000  plane waves:   3422
 k-point  9 :  0.44440.11110.0000  plane waves:   3427
 k-point 10 :  0.22220.22220.0000  plane waves:   3419
 k-point 11 :  0.33330.22220.0000  plane waves:   3420
 k-point 12 :  0.44440.22220.0000  plane waves:   3423
 k-point 13 :  0.33330.33330.0000  plane waves:   3431
 k-point 14 :  0.44440.33330.0000  plane waves:   3417
 k-point 15 :  0.44440.44440.0000  plane waves:   3415
 k-point 16 :  0.00000.00000.1111  plane waves:   3411
 k-point 17 :  0.11110.00000.1111  plane waves:   3417
 k-point 18 :  0.22220.00000.1111  plane waves:   3418
 k-point 19 :  0.33330.00000.1111  plane waves:   3437
 k-point 20 :  0.44440.00000.1111  plane waves:   3427
 k-point 21 :  0.11110.11110.1111  plane waves:   3417
 k-point 22 :  0.22220.11110.1111  plane waves:   3419
 k-point 23 :  0.33330.11110.1111  plane waves:   3432
 k-point 24 :  0.44440.11110.1111  plane waves:   3429
 k-point 25 :  0.22220.22220.1111  plane waves:   3417
 k-point 26 :  0.33330.22220.1111  plane waves:   3420
 k-point 27 :  0.44440.22220.1111  plane waves:   3426
 k-point 28 :  0.33330.33330.1111  plane waves:   3410
 k-point 29 :  0.44440.33330.1111  plane waves:   3414
 k-point 30 :  0.44440.44440.1111  plane waves:   3407
 k-point 31 :  0.00000.00000.2222  plane waves:   3431
 k-point 32 :  0.11110.00000.2222  plane waves:   3432
 k-point 33 :  0.22220.00000.2222  plane waves:   3420
 k-point 34 :  0.33330.00000.2222  plane waves:   3412
 k-point 35 :  0.44440.00000.2222  plane waves:   3416
 k-point 36 :  0.11110.11110.2222  plane waves:   3429
 k-point 37 :  0.22220.11110.2222  plane waves:   3418
 k-point 38 :  0.33330.11110.2222  plane waves:   3420
 k-point 39 :  0.44440.11110.2222  plane waves:   3421
 k-point 40 :  0.22220.22220.2222  plane waves:   3422
 k-point 41 :  0.33330.22220.2222  plane waves:   3417
 k-point 42 :  0.44440.22220.2222  plane waves:   3423
 k-point 43 :  0.33330.33330.2222  plane waves:   3408
 k-point 44 :  0.44440.33330.2222  plane waves:   3415
 k-point 45 :  0.44440.44440.2222  plane waves:   3409
 k-point 46 :  0.00000.00000.3333  plane waves:   3431
 k-point 47 :  0.11110.00000.3333  plane waves:   3415
 k-point 48 :  0.22220.00000.3333  plane waves:   3414
 k-point 49 :  0.33330.00000.3333  plane waves:   3415
 k-point 50 :  0.44440.00000.3333  plane waves:   3409
 k-point 51 :  0.11110.11110.3333  plane waves:   3418
 k-point 52 :  0.22220.11110.3333  plane waves:   3412
 k-point 53 :  0.33330.11110.3333  plane waves:   3410
 k-point 54 :  0.44440.11110.3333  plane waves:   3416
 k-point 55 :  0.22220.22220.3333  plane waves:   3412
 k-point 56 :  0.33330.22220.3333  plane waves:   3420
 k-point 57 :  0.44440.22220.3333  plane waves:   3423
 k-point 58 :  0.33330.33330.3333  plane waves:   3412
 k-point 59 :  0.44440.33330.3333  plane waves:   3414
 k-point 60 :  0.44440.44440.3333  plane waves:   3414
 k-point 61 :  0.00000.00000.4444  plane waves:   3423
 k-point 62 :  0.11110.00000.4444  plane waves:   3416
 k-point 63 :  0.22220.00000.4444  plane waves:   3398
 k-point 64 :  0.33330.00000.4444  plane waves:   3409
 k-point 65 :  0.44440.00000.4444  plane waves:   3425
 k-point 66 :  0.11110.11110.4444  plane waves:   3412
 k-point 67 :  0.22220.11110.4444  plane waves:   3401
 k-point 68 :  0.33330.11110.4444  plane waves:   3414
 k-point 69 :  0.44440.11110.4444  plane waves:   3418
 k-point 70 :  0.22220.22220.4444  plane waves:   3406
 k-point 71 :  0.33330.22220.4444  plane waves:   3409
 k-point 72 :  0.44440.22220.4444  plane waves:   3414
 k-point 73 :  0.33330.33330.4444  plane waves:   3399
 k-point 74 :  0.44440.33330.4444  plane waves:   3413
 k-point 75 :  0.44440.44440.4444  plane waves:   3416

 maximum and minimum number of plane-waves per node :   3437  3398

 maximum number of plane-waves:   3437
 maximal index in each direction: 
   IXMAX=  9   IYMAX=  9   IZMAX=  9
   IXMIN= -9   IYMIN= -9   IZMIN= -9

 NGX is ok and might be reduce to  38
 NGY is ok and might be reduce to  38
 NGZ is ok and might be reduce to  38

 parallel 3dFFT wavefunction:
    minimum data exchange during FFTs selected (reduces bandwidth)
 parallel 3dFFT charge:
    minimum data exchange during FFTs selected (reduces bandwidth)

 For storing wavefunctions  196.85 MBYTES are necessary
 For predicting wavefunctions    6.09 MBYTES are necessary
Broyden mixing: mesh for mixing (old mesh)
   NGX = 19   NGY = 19   NGZ = 19
  (NGX  = 54   NGY  = 54   NGZ  = 56)
 gives a total of   6859 points
 initial charge density was supplied:
 charge density of overlapping atoms calculated
 number of electron   72.0000000 magnetization 
 keeping initial charge density in first step


--------------------------------------------------------------------------------------------------------


 Maximum index for augmentation-charges          716 (set IRDMAX)


--------------------------------------------------------------------------------------------------------


 First call to EWALD:  gamma=   0.251
 Maximum number of real-space cells 3x 3x 3
 Maximum number of reciprocal cells 3x 3x 3

    FEWALD:  VPU time    0.00: CPU time    0.00


----------------------------------------- Iteration    1(   1)  ---------------------------------------


    POTLOK:  VPU time    0.02: CPU time    0.02
    SETDIJ:  VPU time    0.01: CPU time    0.01
    EDDAV :  VPU time    5.71: CPU time    5.71
 BZINTS: Fermi energy: 13.414663; 72.000000 electrons
         Band energy: 487.273660;  BLOECHL correction: -0.081933
    DOS   :  VPU time   -0.00: CPU time   -0.00
    ------------------------------------------
      LOOP:  VPU time    5.86: CPU time    5.86

 eigenvalue-minimisations  :  7200
 total energy-change (2. order) : 0.2661059E+03  (-0.1733023E+04)
 number of electron   72.0000000 magnetization 
 augmentation part    72.0000000 magnetization 

 Free energy of the ion-electron system (eV)
  ---------------------------------------------------
  alpha Z        PSCENC =        99.20445214
  Ewald energy   TEWEN  =     -2579.78308357
  -1/2 Hartree   DENC   =      -768.43857292
  -V(xc)+E(xc)   XCENC  =      -744.39693926
  PAW double counting   =      2772.42165477    -1891.76045306
  entropy T*S    EENTRO =         0.00000000
  eigenvalues    EBANDS =       487.27365973
  atomic energy  EATOM  =      2891.58518278
  ---------------------------------------------------
  free energy    TOTEN  =       266.10590061 eV

  energy without entropy =      266.10590061  energy(sigma->0) =      266.10590061


--------------------------------------------------------------------------------------------------------




----------------------------------------- Iteration    1(   2)  ---------------------------------------


    EDDAV :  VPU time    6.26: CPU time    6.26
 BZINTS: Fermi energy:  7.005397; 72.000000 electrons
         Band energy: 174.837102;  BLOECHL correction: -0.027827
    DOS   :  VPU time   -0.00: CPU time   -0.00
    ------------------------------------------
      LOOP:  VPU time    6.39: CPU time    6.39

 eigenvalue-minimisations  :  8172
 total energy-change (2. order) :-0.3124366E+03  (-0.2837992E+03)
 number of electron   72.0000000 magnetization 
 augmentation part    72.0000000 magnetization 

 Free energy of the ion-electron system (eV)
  ---------------------------------------------------
  alpha Z        PSCENC =        99.20445214
  Ewald energy   TEWEN  =     -2579.78308357
  -1/2 Hartree   DENC   =      -768.43857292
  -V(xc)+E(xc)   XCENC  =      -744.39693926
  PAW double counting   =      2772.42165477    -1891.76045306
  entropy T*S    EENTRO =         0.00000000
  eigenvalues    EBANDS =       174.83710186
  atomic energy  EATOM  =      2891.58518278
  ---------------------------------------------------
  free energy    TOTEN  =       -46.33065726 eV

  energy without entropy =      -46.33065726  energy(sigma->0) =      -46.33065726


--------------------------------------------------------------------------------------------------------




----------------------------------------- Iteration    1(   3)  ---------------------------------------


    EDDAV :  VPU time    7.09: CPU time    7.09
 BZINTS: Fermi energy:  6.461837; 72.000000 electrons
         Band energy: 150.119017;  BLOECHL correction: -0.018307
    DOS   :  VPU time   -0.00: CPU time   -0.00
    ------------------------------------------
      LOOP:  VPU time    7.22: CPU time    7.22

 eigenvalue-minimisations  :  9480
 total energy-change (2. order) :-0.2471809E+02  (-0.2390203E+02)
 number of electron   72.0000000 magnetization 
 augmentation part    72.0000000 magnetization 

 Free energy of the ion-electron system (eV)
  ---------------------------------------------------
  alpha Z        PSCENC =        99.20445214
  Ewald energy   TEWEN  =     -2579.78308357
  -1/2 Hartree   DENC   =      -768.43857292
  -V(xc)+E(xc)   XCENC  =      -744.39693926
  PAW double counting   =      2772.42165477    -1891.76045306
  entropy T*S    EENTRO =         0.00000000
  eigenvalues    EBANDS =       150.11901670
  atomic energy  EATOM  =      2891.58518278
  ---------------------------------------------------
  free energy    TOTEN  =       -71.04874242 eV

  energy without entropy =      -71.04874242  energy(sigma->0) =      -71.04874242


--------------------------------------------------------------------------------------------------------




----------------------------------------- Iteration    1(   4)  ---------------------------------------


    EDDAV :  VPU time    6.72: CPU time    6.72
 BZINTS: Fermi energy:  6.443049; 72.000000 electrons
         Band energy: 149.403351;  BLOECHL correction: -0.017571
    DOS   :  VPU time   -0.00: CPU time   -0.00
    ------------------------------------------
      LOOP:  VPU time    6.84: CPU time    6.84

 eigenvalue-minimisations  :  8904
 total energy-change (2. order) :-0.7156656E+00  (-0.7114688E+00)
 number of electron   72.0000000 magnetization 
 augmentation part    72.0000000 magnetization 

 Free energy of the ion-electron system (eV)
  ---------------------------------------------------
  alpha Z        PSCENC =        99.20445214
  Ewald energy   TEWEN  =     -2579.78308357
  -1/2 Hartree   DENC   =      -768.43857292
  -V(xc)+E(xc)   XCENC  =      -744.39693926
  PAW double counting   =      2772.42165477    -1891.76045306
  entropy T*S    EENTRO =         0.00000000
  eigenvalues    EBANDS =       149.40335107
  atomic energy  EATOM  =      2891.58518278
  ---------------------------------------------------
  free energy    TOTEN  =       -71.76440805 eV

  energy without entropy =      -71.76440805  energy(sigma->0) =      -71.76440805


--------------------------------------------------------------------------------------------------------




----------------------------------------- Iteration    1(   5)  ---------------------------------------


    EDDAV :  VPU time    7.28: CPU time    7.28
 BZINTS: Fermi energy:  6.442251; 72.000000 electrons
         Band energy: 149.377783;  BLOECHL correction: -0.017513
    DOS   :  VPU time   -0.00: CPU time   -0.00
    CHARGE:  VPU time    0.27: CPU time    0.27
    MIXING:  VPU time    0.00: CPU time    0.00
    ------------------------------------------
      LOOP:  VPU time    7.68: CPU time    7.68

 eigenvalue-minimisations  :  9708
 total energy-change (2. order) :-0.2556809E-01  (-0.2558949E-01)
 number of electron   72.0000018 magnetization 
 augmentation part     2.3670317 magnetization 

 Broyden mixing:
  rms(total) = 0.73294E+00    rms(broyden)= 0.73283E+00
  rms(prec ) = 0.12289E+01
  weight for this iteration     100.00

 Free energy of the ion-electron system (eV)
  ---------------------------------------------------
  alpha Z        PSCENC =        99.20445214
  Ewald energy   TEWEN  =     -2579.78308357
  -1/2 Hartree   DENC   =      -768.43857292
  -V(xc)+E(xc)   XCENC  =      -744.39693926
  PAW double counting   =      2772.42165477    -1891.76045306
  entropy T*S    EENTRO =         0.00000000
  eigenvalues    EBANDS =       149.37778298
  atomic energy  EATOM  =      2891.58518278
  ---------------------------------------------------
  free energy    TOTEN  =       -71.78997614 eV

  energy without entropy =      -71.78997614  energy(sigma->0) =      -71.78997614


--------------------------------------------------------------------------------------------------------




----------------------------------------- Iteration    1(   6)  ---------------------------------------


    POTLOK:  VPU time    0.02: CPU time    0.02
    SETDIJ:  VPU time    0.01: CPU time    0.01
    EDDAV :  VPU time    6.57: CPU time    6.57
 BZINTS: Fermi energy:  6.438632; 72.000000 electrons
         Band energy: 160.588921;  BLOECHL correction: -0.014567
    DOS   :  VPU time   -0.00: CPU time   -0.00
    CHARGE:  VPU time    0.26: CPU time    0.26
    MIXING:  VPU time    0.00: CPU time    0.00
    ------------------------------------------
      LOOP:  VPU time    6.98: CPU time    6.98

 eigenvalue-minimisations  :  8604
 total energy-change (2. order) : 0.1835976E+01  (-0.8140645E-01)
 number of electron   72.0000018 magnetization 
 augmentation part     2.1922355 magnetization 

 Broyden mixing:
  rms(total) = 0.44309E+00    rms(broyden)= 0.44308E+00
  rms(prec ) = 0.71349E+00
  weight for this iteration     100.00

 eigenvalues of (default mixing * dielectric matrix)
  average eigenvalue GAMMA=   2.4090
  2.4090

 Free energy of the ion-electron system (eV)
  ---------------------------------------------------
  alpha Z        PSCENC =        99.20445214
  Ewald energy   TEWEN  =     -2579.78308357
  -1/2 Hartree   DENC   =      -774.06420050
  -V(xc)+E(xc)   XCENC  =      -742.71574707
  PAW double counting   =      2985.96793798    -2110.73746279
  entropy T*S    EENTRO =         0.00000000
  eigenvalues    EBANDS =       160.58892061
  atomic energy  EATOM  =      2891.58518278
  ---------------------------------------------------
  free energy    TOTEN  =       -69.95400043 eV

  energy without entropy =      -69.95400043  energy(sigma->0) =      -69.95400043


--------------------------------------------------------------------------------------------------------




----------------------------------------- Iteration    1(   7)  ---------------------------------------


    POTLOK:  VPU time    0.02: CPU time    0.02
    SETDIJ:  VPU time    0.01: CPU time    0.01
    EDDAV :  VPU time    7.20: CPU time    7.20
 BZINTS: Fermi energy:  6.363698; 72.000000 electrons
         Band energy: 163.644809;  BLOECHL correction: -0.015903
    DOS   :  VPU time   -0.00: CPU time   -0.00
    CHARGE:  VPU time    0.26: CPU time    0.26
    MIXING:  VPU time    0.00: CPU time    0.00
    ------------------------------------------
      LOOP:  VPU time    7.61: CPU time    7.61

 eigenvalue-minimisations  :  9648
 total energy-change (2. order) : 0.8522299E+00  (-0.1848957E+00)
 number of electron   72.0000020 magnetization 
 augmentation part     2.3943241 magnetization 

 Broyden mixing:
  rms(total) = 0.10498E+00    rms(broyden)= 0.10495E+00
  rms(prec ) = 0.18953E+00
  weight for this iteration     100.00

 eigenvalues of (default mixing * dielectric matrix)
  average eigenvalue GAMMA=   1.4092
  2.1962  0.6223

 Free energy of the ion-electron system (eV)
  ---------------------------------------------------
  alpha Z        PSCENC =        99.20445214
  Ewald energy   TEWEN  =     -2579.78308357
  -1/2 Hartree   DENC   =      -771.89746346
  -V(xc)+E(xc)   XCENC  =      -740.53847924
  PAW double counting   =      3245.43118227    -2376.74836995
  entropy T*S    EENTRO =         0.00000000
  eigenvalues    EBANDS =       163.64480851
  atomic energy  EATOM  =      2891.58518278
  ---------------------------------------------------
  free energy    TOTEN  =       -69.10177053 eV

  energy without entropy =      -69.10177053  energy(sigma->0) =      -69.10177053


--------------------------------------------------------------------------------------------------------




----------------------------------------- Iteration    1(   8)  ---------------------------------------


    POTLOK:  VPU time    0.02: CPU time    0.02
    SETDIJ:  VPU time    0.01: CPU time    0.01
    EDDAV :  VPU time    7.73: CPU time    7.73
 BZINTS: Fermi energy:  6.393676; 72.000000 electrons
         Band energy: 167.484355;  BLOECHL correction: -0.014056
    DOS   :  VPU time   -0.00: CPU time   -0.00
    CHARGE:  VPU time    0.26: CPU time    0.26
    MIXING:  VPU time    0.00: CPU time    0.00
    ------------------------------------------
      LOOP:  VPU time    8.14: CPU time    8.14

 eigenvalue-minimisations  : 10512
 total energy-change (2. order) : 0.2669706E-01  (-0.1544290E-01)
 number of electron   72.0000019 magnetization 
 augmentation part     2.1741383 magnetization 

 Broyden mixing:
  rms(total) = 0.42163E-01    rms(broyden)= 0.42161E-01
  rms(prec ) = 0.60944E-01
  weight for this iteration     100.00

 eigenvalues of (default mixing * dielectric matrix)
  average eigenvalue GAMMA=   1.6914
  2.2280  2.2280  0.6183

 Free energy of the ion-electron system (eV)
  ---------------------------------------------------
  alpha Z        PSCENC =        99.20445214
  Ewald energy   TEWEN  =     -2579.78308357
  -1/2 Hartree   DENC   =      -775.68812676
  -V(xc)+E(xc)   XCENC  =      -740.29907565
  PAW double counting   =      3265.55247605    -2397.13125337
  entropy T*S    EENTRO =         0.00000000
  eigenvalues    EBANDS =       167.48435491
  atomic energy  EATOM  =      2891.58518278
  ---------------------------------------------------
  free energy    TOTEN  =       -69.07507347 eV

  energy without entropy =      -69.07507347  energy(sigma->0) =      -69.07507347


--------------------------------------------------------------------------------------------------------




----------------------------------------- Iteration    1(   9)  ---------------------------------------


    POTLOK:  VPU time    0.02: CPU time    0.02
    SETDIJ:  VPU time    0.01: CPU time    0.01
    EDDAV :  VPU time    6.47: CPU time    6.47
 BZINTS: Fermi energy:  6.394074; 72.000000 electrons
         Band energy: 166.429668;  BLOECHL correction: -0.014389
    DOS   :  VPU time   -0.00: CPU time   -0.00
    CHARGE:  VPU time    0.26: CPU time    0.26
    MIXING:  VPU time    0.00: CPU time    0.00
    ------------------------------------------
      LOOP:  VPU time    6.88: CPU time    6.88

 eigenvalue-minimisations  :  8412
 total energy-change (2. order) : 0.2794150E-02  (-0.2457659E-02)
 number of electron   72.0000019 magnetization 
 augmentation part     2.1624833 magnetization 

 Broyden mixing:
  rms(total) = 0.10605E-01    rms(broyden)= 0.10605E-01
  rms(prec ) = 0.18476E-01
  weight for this iteration     100.00

 eigenvalues of (default mixing * dielectric matrix)
  average eigenvalue GAMMA=   1.6050
  2.5952  1.9269  1.2854  0.6125

 Free energy of the ion-electron system (eV)
  ---------------------------------------------------
  alpha Z        PSCENC =        99.20445214
  Ewald energy   TEWEN  =     -2579.78308357
  -1/2 Hartree   DENC   =      -774.69335318
  -V(xc)+E(xc)   XCENC  =      -740.22667412
  PAW double counting   =      3261.86223874    -2393.45070964
  entropy T*S    EENTRO =         0.00000000
  eigenvalues    EBANDS =       166.42966754
  atomic energy  EATOM  =      2891.58518278
  ---------------------------------------------------
  free energy    TOTEN  =       -69.07227932 eV

  energy without entropy =      -69.07227932  energy(sigma->0) =      -69.07227932


--------------------------------------------------------------------------------------------------------




----------------------------------------- Iteration    1(  10)  ---------------------------------------


    POTLOK:  VPU time    0.02: CPU time    0.02
    SETDIJ:  VPU time    0.01: CPU time    0.01
    EDDAV :  VPU time    6.83: CPU time    6.83
 BZINTS: Fermi energy:  6.394069; 72.000000 electrons
         Band energy: 166.749394;  BLOECHL correction: -0.014334
    DOS   :  VPU time   -0.00: CPU time   -0.00
    CHARGE:  VPU time    0.26: CPU time    0.26
    MIXING:  VPU time    0.00: CPU time    0.00
    ------------------------------------------
      LOOP:  VPU time    7.24: CPU time    7.24

 eigenvalue-minimisations  :  8976
 total energy-change (2. order) : 0.4247895E-03  (-0.2412439E-03)
 number of electron   72.0000019 magnetization 
 augmentation part     2.1544999 magnetization 

 Broyden mixing:
  rms(total) = 0.41613E-02    rms(broyden)= 0.41610E-02
  rms(prec ) = 0.55662E-02
  weight for this iteration     100.00

 eigenvalues of (default mixing * dielectric matrix)
  average eigenvalue GAMMA=   1.5600
  2.5185  1.8796  1.8796  0.6117  0.9105

 Free energy of the ion-electron system (eV)
  ---------------------------------------------------
  alpha Z        PSCENC =        99.20445214
  Ewald energy   TEWEN  =     -2579.78308357
  -1/2 Hartree   DENC   =      -774.90743769
  -V(xc)+E(xc)   XCENC  =      -740.14600926
  PAW double counting   =      3270.22015669    -2401.99451005
  entropy T*S    EENTRO =         0.00000000
  eigenvalues    EBANDS =       166.74939444
  atomic energy  EATOM  =      2891.58518278
  ---------------------------------------------------
  free energy    TOTEN  =       -69.07185453 eV

  energy without entropy =      -69.07185453  energy(sigma->0) =      -69.07185453


--------------------------------------------------------------------------------------------------------




----------------------------------------- Iteration    1(  11)  ---------------------------------------


    POTLOK:  VPU time    0.02: CPU time    0.02
    SETDIJ:  VPU time    0.01: CPU time    0.01
    EDDAV :  VPU time    7.14: CPU time    7.14
 BZINTS: Fermi energy:  6.394258; 72.000000 electrons
         Band energy: 166.752074;  BLOECHL correction: -0.014331
    DOS   :  VPU time   -0.00: CPU time   -0.00
    CHARGE:  VPU time    0.26: CPU time    0.26
    MIXING:  VPU time    0.00: CPU time    0.00
    ------------------------------------------
      LOOP:  VPU time    7.55: CPU time    7.55

 eigenvalue-minimisations  :  9540
 total energy-change (2. order) :-0.2202798E-05  (-0.2155001E-04)
 number of electron   72.0000019 magnetization 
 augmentation part     2.1506535 magnetization 

 Broyden mixing:
  rms(total) = 0.20542E-02    rms(broyden)= 0.20541E-02
  rms(prec ) = 0.27169E-02
  weight for this iteration     100.00

 eigenvalues of (default mixing * dielectric matrix)
  average eigenvalue GAMMA=   1.6417
  2.5264  2.5264  2.0820  0.6126  1.0513  1.0513

 Free energy of the ion-electron system (eV)
  ---------------------------------------------------
  alpha Z        PSCENC =        99.20445214
  Ewald energy   TEWEN  =     -2579.78308357
  -1/2 Hartree   DENC   =      -774.93987761
  -V(xc)+E(xc)   XCENC  =      -740.15665815
  PAW double counting   =      3268.98381760    -2400.71776369
  entropy T*S    EENTRO =         0.00000000
  eigenvalues    EBANDS =       166.75207377
  atomic energy  EATOM  =      2891.58518278
  ---------------------------------------------------
  free energy    TOTEN  =       -69.07185673 eV

  energy without entropy =      -69.07185673  energy(sigma->0) =      -69.07185673


--------------------------------------------------------------------------------------------------------




----------------------------------------- Iteration    1(  12)  ---------------------------------------


    POTLOK:  VPU time    0.02: CPU time    0.02
    SETDIJ:  VPU time    0.01: CPU time    0.01
    EDDAV :  VPU time    5.20: CPU time    5.20
 BZINTS: Fermi energy:  6.394091; 72.000000 electrons
         Band energy: 166.723531;  BLOECHL correction: -0.014343
    DOS   :  VPU time   -0.00: CPU time   -0.00
    ------------------------------------------
      LOOP:  VPU time    5.35: CPU time    5.35

 eigenvalue-minimisations  :  6096
 total energy-change (2. order) :-0.2593585E-05  (-0.1005540E-05)
 number of electron   72.0000019 magnetization 
 augmentation part     2.1506535 magnetization 

 Free energy of the ion-electron system (eV)
  ---------------------------------------------------
  alpha Z        PSCENC =        99.20445214
  Ewald energy   TEWEN  =     -2579.78308357
  -1/2 Hartree   DENC   =      -774.92281386
  -V(xc)+E(xc)   XCENC  =      -740.16174990
  PAW double counting   =      3268.48222156    -2400.19959905
  entropy T*S    EENTRO =         0.00000000
  eigenvalues    EBANDS =       166.72353058
  atomic energy  EATOM  =      2891.58518278
  ---------------------------------------------------
  free energy    TOTEN  =       -69.07185933 eV

  energy without entropy =      -69.07185933  energy(sigma->0) =      -69.07185933


--------------------------------------------------------------------------------------------------------




 average (electrostatic) potential at core
  the test charge radii are     1.2793  1.4837
  (the norm of the test charge is              1.0000)
       1 -52.0226       2 -52.0226       3 -52.0226       4 -52.0226       5 -36.6273
       6 -36.6273       7 -36.6273       8 -36.6273       9 -36.4923      10 -36.4923
      11 -36.4923      12 -36.4923      13 -36.4923      14 -36.4923      15 -36.4923
      16 -36.4923
 
 
 
 E-fermi :   6.3941     XC(G=0): -10.5861     alpha+bet :-11.8288
   add alpha+bet to get absolut eigen values

 k-point   1 :       0.0000    0.0000    0.0000
  band No.  band energies     occupation 
      1      -4.0319      2.00000
      2      -1.3795      2.00000
      3      -0.8809      2.00000
      4      -0.7181      2.00000
      5      -0.6243      2.00000
      6      -0.6243      2.00000
      7       0.0651      2.00000
      8       0.2840      2.00000
      9       1.3296      2.00000
     10       1.4584      2.00000
     11       1.4584      2.00000
     12       1.5020      2.00000
     13       1.5721      2.00000
     14       1.8558      2.00000
     15       1.8836      2.00000
     16       1.8836      2.00000
     17       1.9450      2.00000
     18       2.2635      2.00000
     19       2.2635      2.00000
     20       3.1188      2.00000
     21       3.1621      2.00000
     22       3.4169      2.00000
     23       3.4169      2.00000
     24       3.4905      2.00000
     25       3.4905      2.00000
     26       3.6352      2.00000
     27       3.9589      2.00000
     28       4.0319      2.00000
     29       4.0319      2.00000
     30       4.5008      2.00000
     31       4.5541      2.00000
     32       4.9039      2.00000
     33       4.9076      2.00000
     34       4.9077      2.00000
     35       6.0176      2.00000
     36       6.0918      2.00000
     37       6.1306      2.00000
     38       6.1306      2.50002
     39       6.2333      1.65261
     40       7.0352      0.00000
     41       7.6058      0.00000
     42       8.0626      0.00000
     43       8.0626      0.00000
     44       8.1018      0.00000
     45       8.1673      0.00000
     46       8.3502      0.00000
     47       8.3502      0.00000
     48       8.9114      0.00000

 k-point   2 :       0.1111    0.0000    0.0000
  band No.  band energies     occupation 
      1      -3.9895      2.00000
      2      -1.5414      2.00000
      3      -1.1072      2.00000
      4      -0.6916      2.00000
      5      -0.5853      2.00000
      6      -0.3538      2.00000
      7       0.2665      2.00000
      8       0.2723      2.00000
      9       1.1446      2.00000
     10       1.2071      2.00000
     11       1.3695      2.00000
     12       1.3791      2.00000
     13       1.6483      2.00000
     14       1.8468      2.00000
     15       1.9948      2.00000
     16       1.9960      2.00000
     17       2.0500      2.00000
     18       2.2939      2.00000
     19       2.3508      2.00000
     20       3.1285      2.00000
     21       3.1293      2.00000
     22       3.4306      2.00000
     23       3.4576      2.00000
     24       3.4580      2.00000
     25       3.4996      2.00000
     26       3.6096      2.00000
     27       3.7460      2.00000
     28       3.9554      2.00000
     29       4.2631      2.00000
     30       4.5214      2.00000
     31       4.6488      2.00000
     32       4.6588      2.00000
     33       4.8729      2.00000
     34       5.0851      2.00000
     35       5.9789      2.00000
     36       6.0387      2.00000
     37       6.1072      2.14316
     38       6.3813      0.95752
     39       6.4260      0.13864
     40       6.9845      0.00000
     41       7.4318      0.00000
     42       7.6361      0.00000
     43       7.8426      0.00000
     44       8.2075      0.00000
     45       8.5440      0.00000
     46       8.6326      0.00000
     47       8.7005      0.00000
     48       9.1353      0.00000

 k-point   3 :       0.2222    0.0000    0.0000
  band No.  band energies     occupation 
      1      -3.8625      2.00000
      2      -2.0322      2.00000
      3      -1.0410      2.00000
      4      -0.6128      2.00000
      5      -0.4710      2.00000
      6      -0.1630      2.00000
      7       0.2166      2.00000
      8       0.6482      2.00000
      9       0.7434      2.00000
     10       0.9792      2.00000
     11       1.1294      2.00000
     12       1.2328      2.00000
     13       1.4240      2.00000
     14       2.0534      2.00000
     15       2.1661      2.00000
     16       2.1690      2.00000
     17       2.2700      2.00000
     18       2.4215      2.00000
     19       2.5146      2.00000
     20       3.0434      2.00000
     21       3.1436      2.00000
     22       3.3638      2.00000
     23       3.4476      2.00000
     24       3.4833      2.00000
     25       3.5450      2.00000
     26       3.5676      2.00000
     27       3.6741      2.00000
     28       3.7959      2.00000
     29       4.2474      2.00000
     30       4.4038      2.00000
     31       4.5401      2.00000
     32       4.8087      2.00000
     33       4.9210      2.00000
     34       5.1162      2.00000
     35       5.9341      2.00000
     36       6.0303      2.00000
     37       6.3892      0.83179
     38       6.7276     -0.06214
     39       6.8082      0.00000
     40       6.8976      0.00000
     41       7.2309      0.00000
     42       7.3340      0.00000
     43       7.6839      0.00000
     44       8.3830      0.00000
     45       8.4181      0.00000
     46       9.0059      0.00000
     47       9.2081      0.00000
     48       9.3361      0.00000

 k-point   4 :       0.3333    0.0000    0.0000
  band No.  band energies     occupation 
      1      -3.6516      2.00000
      2      -2.5377      2.00000
      3      -0.8328      2.00000
      4      -0.4848      2.00000
      5      -0.2941      2.00000
      6       0.0169      2.00000
      7       0.0806      2.00000
      8       0.3092      2.00000
      9       0.6315      2.00000
     10       0.8369      2.00000
     11       0.8765      2.00000
     12       1.0900      2.00000
     13       1.5269      2.00000
     14       2.0089      2.00000
     15       2.4037      2.00000
     16       2.4816      2.00000
     17       2.5258      2.00000
     18       2.5967      2.00000
     19       2.7839      2.00000
     20       2.9438      2.00000
     21       3.1313      2.00000
     22       3.2154      2.00000
     23       3.3138      2.00000
     24       3.4368      2.00000
     25       3.5755      2.00000
     26       3.6331      2.00000
     27       3.7000      2.00000
     28       3.7048      2.00000
     29       4.0985      2.00000
     30       4.1581      2.00000
     31       4.5412      2.00000
     32       4.7841      2.00000
     33       4.9598      2.00000
     34       5.0322      2.00000
     35       5.9423      2.00000
     36       6.1020      2.00000
     37       6.7074     -0.03468
     38       6.8342      0.00000
     39       6.9595      0.00000
     40       7.0025      0.00000
     41       7.2907      0.00000
     42       7.5608      0.00000
     43       7.8619      0.00000
     44       7.9930      0.00000
     45       8.7657      0.00000
     46       9.2728      0.00000
     47       9.3758      0.00000
     48       9.8893      0.00000

 k-point   5 :       0.4444    0.0000    0.0000
  band No.  band energies     occupation 
      1      -3.3581      2.00000
      2      -2.9848      2.00000
      3      -0.5403      2.00000
      4      -0.3139      2.00000
      5      -0.2233      2.00000
      6      -0.1145      2.00000
      7       0.0615      2.00000
      8       0.1944      2.00000
      9       0.3925      2.00000
     10       0.5466      2.00000
     11       0.8899      2.00000
     12       0.9707      2.00000
     13       1.7510      2.00000
     14       1.9085      2.00000
     15       2.5955      2.00000
     16       2.7012      2.00000
     17       2.7816      2.00000
     18       2.7830      2.00000
     19       2.9054      2.00000
     20       3.0201      2.00000
     21       3.0264      2.00000
     22       3.0671      2.00000
     23       3.1981      2.00000
     24       3.3901      2.00000
     25       3.5714      2.00000
     26       3.6973      2.00000
     27       3.7577      2.00000
     28       3.7592      2.00000
     29       3.8915      2.00000
     30       3.9362      2.00000
     31       4.5821      2.00000
     32       4.7526      2.00000
     33       4.8252      2.00000
     34       4.9178      2.00000
     35       5.9920      2.00000
     36       6.0710      2.00000
     37       6.7863      0.00000
     38       6.8010      0.00000
     39       6.9244      0.00000
     40       6.9385      0.00000
     41       7.8201      0.00000
     42       8.1453      0.00000
     43       8.2985      0.00000
     44       8.5689      0.00000
     45       8.6562      0.00000
     46       8.8292      0.00000
     47       9.2037      0.00000
     48       9.2185      0.00000

 k-point   6 :       0.1111    0.1111    0.0000
  band No.  band energies     occupation 
      1      -3.9471      2.00000
      2      -1.5499      2.00000
      3      -1.3752      2.00000
      4      -0.6652      2.00000
      5      -0.6162      2.00000
      6      -0.0358      2.00000
      7       0.2647      2.00000
      8       0.3671      2.00000
      9       0.9270      2.00000
     10       1.0911      2.00000
     11       1.2624      2.00000
     12       1.3097      2.00000
     13       1.7356      2.00000
     14       1.9106      2.00000
     15       1.9940      2.00000
     16       2.1302      2.00000
     17       2.1335      2.00000
     18       2.3242      2.00000
     19       2.3589      2.00000
     20       3.0744      2.00000
     21       3.1341      2.00000
     22       3.4344      2.00000
     23       3.4599      2.00000
     24       3.4750      2.00000
     25       3.4881      2.00000
     26       3.5899      2.00000
     27       3.6679      2.00000
     28       3.9484      2.00000
     29       4.3650      2.00000
     30       4.5189      2.00000
     31       4.5259      2.00000
     32       4.6885      2.00000
     33       4.8976      2.00000
     34       5.0757      2.00000
     35       5.9139      2.00000
     36       6.1374      2.00000
     37       6.1839      2.24933
     38       6.2523      1.35017
     39       6.7479     -0.06036
     40       6.9604      0.00000
     41       7.4528      0.00000
     42       7.4608      0.00000
     43       8.1015      0.00000
     44       8.2989      0.00000
     45       8.3859      0.00000
     46       8.4496      0.00000
     47       8.9775      0.00000
     48       9.1428      0.00000

 k-point   7 :       0.2222    0.1111    0.0000
  band No.  band energies     occupation 
      1      -3.8202      2.00000
      2      -1.9902      2.00000
      3      -1.3390      2.00000
      4      -0.5869      2.00000
      5      -0.5216      2.00000
      6       0.2121      2.00000
      7       0.2209      2.00000
      8       0.4045      2.00000
      9       0.8159      2.00000
     10       0.9061      2.00000
     11       1.0525      2.00000
     12       1.1788      2.00000
     13       1.6663      2.00000
     14       1.9336      2.00000
     15       2.2483      2.00000
     16       2.2653      2.00000
     17       2.3227      2.00000
     18       2.4306      2.00000
     19       2.4833      2.00000
     20       2.9757      2.00000
     21       3.1327      2.00000
     22       3.3697      2.00000
     23       3.4473      2.00000
     24       3.4778      2.00000
     25       3.5272      2.00000
     26       3.5416      2.00000
     27       3.6650      2.00000
     28       3.8461      2.00000
     29       4.2947      2.00000
     30       4.3121      2.00000
     31       4.5459      2.00000
     32       4.8353      2.00000
     33       4.8917      2.00000
     34       5.0410      2.00000
     35       5.8914      2.00000
     36       6.0815      2.00000
     37       6.4320      0.45696
     38       6.5140      0.00586
     39       6.9886      0.00000
     40       7.2289      0.00000
     41       7.3502      0.00000
     42       7.4284      0.00000
     43       7.8638      0.00000
     44       8.3658      0.00000
     45       8.4821      0.00000
     46       8.7110      0.00000
     47       8.9104      0.00000
     48       9.6101      0.00000

 k-point   8 :       0.3333    0.1111    0.0000
  band No.  band energies     occupation 
      1      -3.6093      2.00000
      2      -2.4956      2.00000
      3      -1.1343      2.00000
      4      -0.4597      2.00000
      5      -0.3788      2.00000
      6       0.0249      2.00000
      7       0.0967      2.00000
      8       0.4121      2.00000
      9       0.6648      2.00000
     10       0.8146      2.00000
     11       1.0391      2.00000
     12       1.0420      2.00000
     13       1.6425      2.00000
     14       1.9941      2.00000
     15       2.3077      2.00000
     16       2.5305      2.00000
     17       2.5836      2.00000
     18       2.6328      2.00000
     19       2.7050      2.00000
     20       2.9040      2.00000
     21       3.1260      2.00000
     22       3.2164      2.00000
     23       3.3434      2.00000
     24       3.4382      2.00000
     25       3.5668      2.00000
     26       3.5968      2.00000
     27       3.7112      2.00000
     28       3.7569      2.00000
     29       4.0846      2.00000
     30       4.0946      2.00000
     31       4.5658      2.00000
     32       4.7754      2.00000
     33       4.9578      2.00000
     34       4.9595      2.00000
     35       5.9040      2.00000
     36       6.1288      2.00000
     37       6.7063     -0.00786
     38       6.8207      0.00000
     39       7.1027      0.00000
     40       7.3125      0.00000
     41       7.3199      0.00000
     42       7.6767      0.00000
     43       8.0120      0.00000
     44       8.0484      0.00000
     45       8.8088      0.00000
     46       9.0878      0.00000
     47       9.1562      0.00000
     48       9.7965      0.00000

 k-point   9 :       0.4444    0.1111    0.0000
  band No.  band energies     occupation 
      1      -3.3158      2.00000
      2      -2.9426      2.00000
      3      -0.8522      2.00000
      4      -0.5222      2.00000
      5      -0.2901      2.00000
      6      -0.0931      2.00000
      7       0.0223      2.00000
      8       0.3130      2.00000
      9       0.6400      2.00000
     10       0.8355      2.00000
     11       0.8740      2.00000
     12       0.9217      2.00000
     13       1.7881      2.00000
     14       1.9270      2.00000
     15       2.4692      2.00000
     16       2.6250      2.00000
     17       2.7795      2.00000
     18       2.8637      2.00000
     19       2.8844      2.00000
     20       3.0126      2.00000
     21       3.0146      2.00000
     22       3.1243      2.00000
     23       3.2019      2.00000
     24       3.3920      2.00000
     25       3.5952      2.00000
     26       3.7129      2.00000
     27       3.7176      2.00000
     28       3.7637      2.00000
     29       3.8559      2.00000
     30       3.8885      2.00000
     31       4.6333      2.00000
     32       4.7886      2.00000
     33       4.8038      2.00000
     34       4.8609      2.00000
     35       5.9664      2.00000
     36       6.0789      2.00000
     37       6.8538      0.00000
     38       6.9773      0.00000
     39       6.9945      0.00000
     40       7.1357      0.00000
     41       7.8633      0.00000
     42       7.8816      0.00000
     43       8.4673      0.00000
     44       8.5960      0.00000
     45       8.6678      0.00000
     46       8.7978      0.00000
     47       9.2731      0.00000
     48       9.4784      0.00000

 k-point  10 :       0.2222    0.2222    0.0000
  band No.  band energies     occupation 
      1      -3.6932      2.00000
      2      -1.8803      2.00000
      3      -1.8455      2.00000
      4      -0.5100      2.00000
      5      -0.4746      2.00000
      6      -0.0104      2.00000
      7       0.2151      2.00000
      8       0.6673      2.00000
      9       0.7538      2.00000
     10       0.9657      2.00000
     11       1.0061      2.00000
     12       1.0606      2.00000
     13       1.7622      2.00000
     14       1.9361      2.00000
     15       2.3128      2.00000
     16       2.4108      2.00000
     17       2.4563      2.00000
     18       2.4876      2.00000
     19       2.5649      2.00000
     20       2.8619      2.00000
     21       3.1183      2.00000
     22       3.3690      2.00000
     23       3.4362      2.00000
     24       3.4489      2.00000
     25       3.4963      2.00000
     26       3.5104      2.00000
     27       3.7060      2.00000
     28       3.8252      2.00000
     29       4.1316      2.00000
     30       4.2350      2.00000
     31       4.5766      2.00000
     32       4.8357      2.00000
     33       4.8798      2.00000
     34       4.9641      2.00000
     35       5.8570      2.00000
     36       6.0670      2.00000
     37       6.6318     -0.08866
     38       6.6414     -0.00938
     39       7.1356      0.00000
     40       7.5654      0.00000
     41       7.6643      0.00000
     42       7.8079      0.00000
     43       8.1924      0.00000
     44       8.2170      0.00000
     45       8.5042      0.00000
     46       8.6327      0.00000
     47       8.7674      0.00000
     48       8.9332      0.00000

 k-point  11 :       0.3333    0.2222    0.0000
  band No.  band energies     occupation 
      1      -3.4824      2.00000
      2      -2.3697      2.00000
      3      -1.6563      2.00000
      4      -0.6424      2.00000
      5      -0.3853      2.00000
      6      -0.1144      2.00000
      7       0.1371      2.00000
      8       0.6626      2.00000
      9       0.7147      2.00000
     10       0.9246      2.00000
     11       0.9425      2.00000
     12       1.2426      2.00000
     13       1.7503      2.00000
     14       2.0330      2.00000
     15       2.2011      2.00000
     16       2.5542      2.00000
     17       2.6397      2.00000
     18       2.7354      2.00000
     19       2.7449      2.00000
     20       2.8308      2.00000
     21       3.1373      2.00000
     22       3.2389      2.00000
     23       3.3942      2.00000
     24       3.4313      2.00000
     25       3.4985      2.00000
     26       3.5253      2.00000
     27       3.7453      2.00000
     28       3.7809      2.00000
     29       3.9415      2.00000
     30       3.9973      2.00000
     31       4.6508      2.00000
     32       4.7331      2.00000
     33       4.8054      2.00000
     34       5.0502      2.00000
     35       5.8653      2.00000
     36       6.0882      2.00000
     37       6.9208     -0.00240
     38       6.9392      0.00000
     39       7.3752      0.00000
     40       7.5713      0.00000
     41       7.6796      0.00000
     42       7.9485      0.00000
     43       8.1339      0.00000
     44       8.5562      0.00000
     45       8.6609      0.00000
     46       8.7647      0.00000
     47       9.1017      0.00000
     48       9.1550      0.00000

 k-point  12 :       0.4444    0.2222    0.0000
  band No.  band energies     occupation 
      1      -3.1891      2.00000
      2      -2.8163      2.00000
      3      -1.3728      2.00000
      4      -1.0228      2.00000
      5      -0.2200      2.00000
      6      -0.0312      2.00000
      7       0.1078      2.00000
      8       0.4107      2.00000
      9       0.6941      2.00000
     10       0.7949      2.00000
     11       1.1244      2.00000
     12       1.2673      2.00000
     13       1.8085      2.00000
     14       1.9461      2.00000
     15       2.3062      2.00000
     16       2.4808      2.00000
     17       2.8424      2.00000
     18       2.8978      2.00000
     19       2.9685      2.00000
     20       2.9950      2.00000
     21       3.0561      2.00000
     22       3.2297      2.00000
     23       3.2304      2.00000
     24       3.3828      2.00000
     25       3.5508      2.00000
     26       3.6078      2.00000
     27       3.6796      2.00000
     28       3.7614      2.00000
     29       3.7901      2.00000
[...]
      6      -0.5640      2.00000
      7      -0.0234      2.00000
      8       0.3119      2.00000
      9       1.1798      2.00000
     10       1.2527      2.00000
     11       1.2907      2.00000
     12       1.5663      2.00000
     13       2.0082      2.00000
     14       2.1772      2.00000
     15       2.3565      2.00000
     16       2.5297      2.00000
     17       2.5768      2.00000
     18       2.7932      2.00000
     19       2.9794      2.00000
     20       3.0289      2.00000
     21       3.1515      2.00000
     22       3.1955      2.00000
     23       3.3147      2.00000
     24       3.3742      2.00000
     25       3.4604      2.00000
     26       3.5345      2.00000
     27       3.7629      2.00000
     28       3.8035      2.00000
     29       4.2891      2.00000
     30       4.4258      2.00000
     31       4.5431      2.00000
     32       4.8354      2.00000
     33       5.1005      2.00000
     34       5.2415      2.00000
     35       6.1590      2.00000
     36       6.4166      1.11638
     37       6.7973      0.00000
     38       7.0178      0.00000
     39       7.0278      0.00000
     40       7.3112      0.00000
     41       7.7262      0.00000
     42       7.8287      0.00000
     43       8.1348      0.00000
     44       8.3958      0.00000
     45       8.4936      0.00000
     46       8.8503      0.00000
     47       8.9749      0.00000
     48       9.2325      0.00000

 k-point  72 :       0.4444    0.2222    0.4444
  band No.  band energies     occupation 
      1      -2.6681      2.00000
      2      -2.5077      2.00000
      3      -1.9101      2.00000
      4      -1.7584      2.00000
      5      -0.6624      2.00000
      6      -0.4864      2.00000
      7      -0.1885      2.00000
      8      -0.0008      2.00000
      9       1.2754      2.00000
     10       1.3106      2.00000
     11       1.4236      2.00000
     12       1.5635      2.00000
     13       2.0360      2.00000
     14       2.0888      2.00000
     15       2.4899      2.00000
     16       2.5701      2.00000
     17       2.6973      2.00000
     18       2.8390      2.00000
     19       2.8791      2.00000
     20       2.9111      2.00000
     21       3.1769      2.00000
     22       3.1837      2.00000
     23       3.3053      2.00000
     24       3.3449      2.00000
     25       3.5494      2.00000
     26       3.5802      2.00000
     27       3.7420      2.00000
     28       3.7703      2.00000
     29       4.3789      2.00000
     30       4.4121      2.00000
     31       4.7223      2.00000
     32       4.8582      2.00000
     33       5.3265      2.00000
     34       5.3812      2.00000
     35       6.2406      2.00000
     36       6.3390      1.71658
     37       6.7960      0.00000
     38       6.8732      0.00000
     39       7.3452      0.00000
     40       7.5446      0.00000
     41       7.7605      0.00000
     42       7.8715      0.00000
     43       7.9844      0.00000
     44       8.0568      0.00000
     45       8.4241      0.00000
     46       8.4335      0.00000
     47       8.6262      0.00000
     48       8.7412      0.00000

 k-point  73 :       0.3333    0.3333    0.4444
  band No.  band energies     occupation 
      1      -2.7147      2.00000
      2      -2.4408      2.00000
      3      -1.6839      2.00000
      4      -1.4698      2.00000
      5      -1.0986      2.00000
      6      -0.8723      2.00000
      7      -0.3307      2.00000
      8      -0.0550      2.00000
      9       1.3914      2.00000
     10       1.4304      2.00000
     11       1.4510      2.00000
     12       1.7357      2.00000
     13       1.9776      2.00000
     14       2.0694      2.00000
     15       2.4636      2.00000
     16       2.5585      2.00000
     17       2.6569      2.00000
     18       2.8116      2.00000
     19       2.9781      2.00000
     20       3.0551      2.00000
     21       3.2001      2.00000
     22       3.2844      2.00000
     23       3.3678      2.00000
     24       3.4174      2.00000
     25       3.4214      2.00000
     26       3.4700      2.00000
     27       3.7270      2.00000
     28       3.8006      2.00000
     29       4.5759      2.00000
     30       4.6417      2.00000
     31       4.7121      2.00000
     32       4.9838      2.00000
     33       5.2802      2.00000
     34       5.3978      2.00000
     35       6.2559      2.03484
     36       6.6650     -0.40588
     37       6.8323      0.00000
     38       6.8514      0.00000
     39       7.0129      0.00000
     40       7.1098      0.00000
     41       7.6600      0.00000
     42       7.7097      0.00000
     43       8.0290      0.00000
     44       8.1663      0.00000
     45       8.4119      0.00000
     46       8.5036      0.00000
     47       8.5425      0.00000
     48       8.8290      0.00000

 k-point  74 :       0.4444    0.3333    0.4444
  band No.  band energies     occupation 
      1      -2.4725      2.00000
      2      -2.3124      2.00000
      3      -1.8304      2.00000
      4      -1.6842      2.00000
      5      -1.0626      2.00000
      6      -0.9328      2.00000
      7      -0.5049      2.00000
      8      -0.3616      2.00000
      9       1.4850      2.00000
     10       1.5132      2.00000
     11       1.6153      2.00000
     12       1.7523      2.00000
     13       1.9573      2.00000
     14       1.9930      2.00000
     15       2.5359      2.00000
     16       2.5586      2.00000
     17       2.7539      2.00000
     18       2.8188      2.00000
     19       2.9691      2.00000
     20       2.9981      2.00000
     21       3.2655      2.00000
     22       3.2841      2.00000
     23       3.3184      2.00000
     24       3.3635      2.00000
     25       3.5110      2.00000
     26       3.5304      2.00000
     27       3.7237      2.00000
     28       3.7752      2.00000
     29       4.7469      2.00000
     30       4.7708      2.00000
     31       4.9625      2.00000
     32       5.0974      2.00000
     33       5.4524      2.00000
     34       5.4790      2.00000
     35       6.3630      1.90314
     36       6.5198      0.02211
     37       6.8398      0.00000
     38       6.9009      0.00000
     39       7.2271      0.00000
     40       7.4810      0.00000
     41       7.5973      0.00000
     42       7.6575      0.00000
     43       7.7638      0.00000
     44       7.9397      0.00000
     45       8.1192      0.00000
     46       8.1669      0.00000
     47       8.2632      0.00000
     48       8.3924      0.00000

 k-point  75 :       0.4444    0.4444    0.4444
  band No.  band energies     occupation 
      1      -2.2264      2.00000
      2      -2.1037      2.00000
      3      -1.8567      2.00000
      4      -1.7414      2.00000
      5      -1.2301      2.00000
      6      -1.1858      2.00000
      7      -0.6980      2.00000
      8      -0.6325      2.00000
      9       1.6237      2.00000
     10       1.6761      2.00000
     11       1.6919      2.00000
     12       1.8268      2.00000
     13       1.8696      2.00000
     14       1.9215      2.00000
     15       2.5483      2.00000
     16       2.5510      2.00000
     17       2.7927      2.00000
     18       2.8175      2.00000
     19       3.0391      2.00000
     20       3.0545      2.00000
     21       3.2432      2.00000
     22       3.2642      2.00000
     23       3.2812      2.00000
     24       3.3081      2.00000
     25       3.5955      2.00000
     26       3.6136      2.00000
     27       3.7159      2.00000
     28       3.7520      2.00000
     29       5.0917      2.00000
     30       5.1438      2.00000
     31       5.1780      2.00000
     32       5.2623      2.00000
     33       5.4966      2.00000
     34       5.5259      2.00000
     35       6.4458      0.61317
     36       6.5149      0.00041
     37       7.0441      0.00000
     38       7.0848      0.00000
     39       7.3072      0.00000
     40       7.3894      0.00000
     41       7.5114      0.00000
     42       7.5880      0.00000
     43       7.6608      0.00000
     44       7.7542      0.00000
     45       7.8721      0.00000
     46       7.9323      0.00000
     47       8.0889      0.00000
     48       8.2465      0.00000


--------------------------------------------------------------------------------------------------------


 soft charge-density along one line, spin component           1
         0         1         2         3         4         5         6         7         8         9
 total charge-density along one line
 
 pseudopotential strength for first ion, spin component:           1
 -5.708   0.000  -0.028   0.000  -0.000  -0.240  -0.000   0.004
  0.000  -5.690   0.000  -0.005  -0.000  -0.000  -0.242  -0.000
 -0.028   0.000  -5.650   0.000  -0.000   0.004  -0.000  -0.248
  0.000  -0.005   0.000  -5.690   0.000  -0.000   0.000  -0.000
 -0.000  -0.000  -0.000   0.000  -5.694   0.000   0.000   0.000
 -0.240  -0.000   0.004  -0.000   0.000   0.251   0.000  -0.000
 -0.000  -0.242  -0.000   0.000   0.000   0.000   0.251   0.000
  0.004  -0.000  -0.248  -0.000   0.000  -0.000   0.000   0.252
 -0.000   0.000  -0.000  -0.242  -0.000   0.000  -0.000   0.000
  0.000   0.000   0.000  -0.000  -0.241  -0.000  -0.000  -0.000
 -0.004  -0.000  -0.011  -0.000  -0.000   0.000   0.000   0.001
  0.001   0.000   0.001   0.000   0.000  -0.000  -0.000  -0.000
  0.000   0.000   0.001  -0.000   0.001   0.000  -0.000  -0.000
 -0.000   0.000   0.000   0.000   0.000   0.000   0.000  -0.000
  0.000  -0.000   0.001   0.000  -0.001   0.000   0.000  -0.000
 -0.000  -0.000  -0.000   0.000   0.000  -0.000   0.000   0.000
  0.000  -0.001  -0.000  -0.001  -0.000  -0.000   0.000   0.000
 -0.000   0.000  -0.000  -0.000  -0.000  -0.000  -0.000   0.000
 total augmentation occupancy for first ion, spin component:           1
  1.605  -0.008  -0.076   0.015   0.011   0.363   0.005   0.076  -0.005  -0.005  -0.019  -0.008  -0.027  -0.003  -0.033   0.001
 -0.008   1.582   0.002  -0.036  -0.014   0.005   0.393   0.003   0.039   0.004   0.022   0.002   0.003  -0.013  -0.000  -0.000
 -0.076   0.002   1.720  -0.001   0.049   0.077   0.003   0.266   0.005  -0.032   0.041  -0.001   0.008   0.002   0.002   0.000
  0.015  -0.036  -0.001   1.610   0.006  -0.006   0.039   0.005   0.389  -0.000   0.011   0.000  -0.005  -0.006   0.001   0.000
  0.011  -0.014   0.049   0.006   1.683  -0.006   0.003  -0.031  -0.000   0.343  -0.034  -0.007   0.005  -0.000   0.000  -0.001
  0.363   0.005   0.077  -0.006  -0.006   0.238  -0.002   0.028   0.001   0.001  -0.009   0.001   0.016   0.003   0.022  -0.001
  0.005   0.393   0.003   0.039   0.003  -0.002   0.218  -0.004   0.046   0.001  -0.003   0.001  -0.001  -0.009   0.000   0.000
  0.076   0.003   0.266   0.005  -0.031   0.028  -0.004   0.179  -0.006   0.008  -0.049   0.021  -0.002  -0.001   0.001   0.000
 -0.005   0.039   0.005   0.389  -0.000   0.001   0.046  -0.006   0.212  -0.002   0.000   0.001   0.003  -0.011   0.000  -0.000
 -0.005   0.004  -0.032  -0.000   0.343   0.001   0.001   0.008  -0.002   0.216   0.012  -0.003   0.018  -0.001  -0.023  -0.001
 -0.019   0.022   0.041   0.011  -0.034  -0.009  -0.003  -0.049   0.000   0.012   1.084  -0.331  -0.031   0.005  -0.018   0.001
 -0.008   0.002  -0.001   0.000  -0.007   0.001   0.001   0.021   0.001  -0.003  -0.331   0.145  -0.001   0.001   0.000   0.000
 -0.027   0.003   0.008  -0.005   0.005   0.016  -0.001  -0.002   0.003   0.018  -0.031  -0.001   0.239  -0.006  -0.008  -0.010
 -0.003  -0.013   0.002  -0.006  -0.000   0.003  -0.009  -0.001  -0.011  -0.001   0.005   0.001  -0.006   0.228  -0.004  -0.000
 -0.033  -0.000   0.002   0.001   0.000   0.022   0.000   0.001   0.000  -0.023  -0.018   0.000  -0.008  -0.004   0.254  -0.000
  0.001  -0.000   0.000   0.000  -0.001  -0.001   0.000   0.000  -0.000  -0.001   0.001   0.000  -0.010  -0.000  -0.000   0.001
 -0.000   0.002  -0.000   0.002   0.000   0.000   0.000   0.000   0.000   0.000  -0.000  -0.000  -0.000  -0.009  -0.000   0.000
  0.001  -0.000   0.000  -0.000   0.001  -0.001   0.000  -0.000   0.000   0.000   0.001   0.000  -0.000  -0.000  -0.010   0.000


------------------------ aborting loop because EDIFF is reached ----------------------------------------




--------------------------------------------------------------------------------------------------------


    CHARGE:  VPU time    0.27: CPU time    0.27
    FORLOC:  VPU time    0.00: CPU time    0.00
    FORNL :  VPU time    1.73: CPU time    1.73
    STRESS:  VPU time    5.80: CPU time    5.80
    FORCOR:  VPU time    0.02: CPU time    0.02
    FORHAR:  VPU time    0.00: CPU time    0.00
    MIXING:  VPU time    0.00: CPU time    0.00


--------------------------------------------------------------------------------------------------------



  FREE ENERGIE OF THE ION-ELECTRON SYSTEM (eV)
  ---------------------------------------------------
  free  energy   TOTEN  =       -69.071859 eV

  energy  without entropy=      -69.071859  energy(sigma->0) =      -69.071859
 

  FORCE on cell =-STRESS in cart. coord.  units (eV/reduce length):
  Direction    X        Y        Z        XY       YZ       ZX
  --------------------------------------------------------------------------------------
  Alpha Z     99.20     99.20     99.20
  Ewald     -774.49   -774.49  -1030.81      0.00      0.00      0.00
  Hartree    304.24    304.24    166.46     -0.00     -0.00     -0.00
  E(xc)     -319.89   -319.89   -317.95      0.00      0.00      0.00
  Local     -351.67   -351.67     37.04     -0.00      0.00      0.00
  n-local    318.57    322.57    310.58      0.37      0.60      0.50
  augment     68.40     68.40     72.95     -0.00     -0.00     -0.00
  Kinetic    662.95    666.67    673.01     -0.27     -1.28     -2.59
  -------------------------------------------------------------------------------------
  Total       11.17     11.17     10.49     -0.00      0.00      0.00
  in kB       50.90     50.90     47.78     -0.00      0.00      0.00
  external pressure =       49.86 kB  Pullay stress =        0.00 kB


 VOLUME and BASIS-vectors are now :
 -----------------------------------------------------------------------------
  energy-cutoff  :      263.58
  volume of cell :      351.68
      direct lattice vectors                 reciprocal lattice vectors
     6.993299961  0.000000000  0.000000000     0.142994009  0.000000000  0.000000000
     0.000000000  6.993299961  0.000000000     0.000000000  0.142994009  0.000000000
     0.000000000  0.000000000  7.190800190     0.000000000  0.000000000  0.139066581

  length of vectors
     6.993299961  6.993299961  7.190800190     0.142994009  0.142994009  0.139066581


 FORCES acting on ions
    electron-ion (+dipol)            ewald-force                    non-local-force                 convergence-correction
 -----------------------------------------------------------------------------------------------
   0.398E+02 0.398E+02 -.328E-05   -.403E+02 -.403E+02 -.309E-05   0.497E+00 0.497E+00 -.434E-17   0.328E-02 0.328E-02 0.256E-07
   -.398E+02 -.398E+02 0.847E-05   0.403E+02 0.403E+02 -.309E-05   -.497E+00 -.497E+00 0.434E-17   -.328E-02 -.328E-02 0.256E-07
   -.398E+02 0.398E+02 -.270E-05   0.403E+02 -.403E+02 -.458E-05   -.497E+00 0.497E+00 -.347E-17   -.328E-02 0.328E-02 0.446E-09
   0.398E+02 -.398E+02 -.270E-05   -.403E+02 0.403E+02 -.458E-05   0.497E+00 -.497E+00 0.347E-17   0.328E-02 -.328E-02 0.446E-09
   0.145E-05 0.242E-05 -.372E-05   -.174E-05 0.381E-05 -.683E-06   0.000E+00 0.000E+00 0.000E+00   -.674E-07 0.265E-07 0.269E-07
   -.527E-05 0.752E-05 0.374E-05   0.625E-06 -.828E-05 -.452E-06   0.000E+00 0.000E+00 0.000E+00   -.667E-07 0.101E-06 -.238E-07
   0.752E-05 -.527E-05 0.374E-05   -.828E-05 0.625E-06 -.452E-06   0.000E+00 0.000E+00 0.000E+00   0.101E-06 -.667E-07 -.238E-07
   0.242E-05 0.145E-05 -.372E-05   0.381E-05 -.174E-05 -.683E-06   0.000E+00 0.000E+00 0.000E+00   0.265E-07 -.674E-07 0.269E-07
   -.380E+01 -.380E+01 0.167E+02   0.415E+01 0.415E+01 -.166E+02   -.359E+00 -.359E+00 -.306E-01   -.471E-03 -.471E-03 0.219E-03
   0.380E+01 0.380E+01 -.167E+02   -.415E+01 -.415E+01 0.166E+02   0.359E+00 0.359E+00 0.306E-01   0.471E-03 0.471E-03 -.219E-03
   0.380E+01 0.380E+01 0.167E+02   -.415E+01 -.415E+01 -.166E+02   0.359E+00 0.359E+00 -.306E-01   0.471E-03 0.471E-03 0.219E-03
   -.380E+01 -.380E+01 -.167E+02   0.415E+01 0.415E+01 0.166E+02   -.359E+00 -.359E+00 0.306E-01   -.471E-03 -.471E-03 -.219E-03
   0.380E+01 -.380E+01 0.167E+02   -.415E+01 0.415E+01 -.166E+02   0.359E+00 -.359E+00 -.306E-01   0.471E-03 -.471E-03 0.219E-03
   -.380E+01 0.380E+01 -.167E+02   0.415E+01 -.415E+01 0.166E+02   -.359E+00 0.359E+00 0.306E-01   -.471E-03 0.471E-03 -.219E-03
   -.380E+01 0.380E+01 0.167E+02   0.415E+01 -.415E+01 -.166E+02   -.359E+00 0.359E+00 -.306E-01   -.471E-03 0.471E-03 0.219E-03
   0.380E+01 -.380E+01 -.167E+02   -.415E+01 0.415E+01 0.166E+02   0.359E+00 -.359E+00 0.306E-01   0.471E-03 -.471E-03 -.219E-03
 -----------------------------------------------------------------------------------------------
   0.171E-03 0.171E-03 -.144E-04   -.115E-13 -.142E-13 0.355E-13   0.167E-15 0.111E-15 -.312E-16   -.691E-06 -.691E-06 0.450E-07
 
 
 POSITION                                       TOTAL-FORCE (eV/Angst)
 -----------------------------------------------------------------------------------
      2.41663      2.41663      0.00000         0.002564      0.002564     -0.000000
      4.57667      4.57667      0.00000        -0.002564     -0.002564      0.000000
      1.08002      5.91328      3.59540        -0.002564      0.002564     -0.000000
      5.91328      1.08002      3.59540         0.002564     -0.002564      0.000000
      0.00000      3.49665      0.00000         0.000000      0.000000      0.000000
      0.00000      3.49665      3.59540         0.000000      0.000000      0.000000
      3.49665      0.00000      3.59540         0.000000      0.000000      0.000000
      3.49665      0.00000      0.00000         0.000000      0.000000      0.000000
      1.05909      1.05909      1.82926        -0.009414     -0.009414     -0.009040
      5.93421      5.93421      5.36154         0.009414      0.009414      0.009040
      5.93421      5.93421      1.82926         0.009414      0.009414     -0.009040
      1.05909      1.05909      5.36154        -0.009414     -0.009414      0.009040
      2.43756      4.55574      5.42466         0.009414     -0.009414     -0.009040
      4.55574      2.43756      1.76614        -0.009414      0.009414      0.009040
      4.55574      2.43756      5.42466        -0.009414      0.009414     -0.009040
      2.43756      4.55574      1.76614         0.009414     -0.009414      0.009040
 -----------------------------------------------------------------------------------
    total drift:                                0.000170      0.000170     -0.000014


--------------------------------------------------------------------------------------------------------



 mean value of Nose-termostat <S>:     1.000 mean value of <T> :     0.000
 mean temperature <T/S>/<1/S>  :     0.000

     LOOP+:  VPU time   91.58: CPU time   91.61
  
  
 General timing and accounting informations for this job:
 ========================================================
  
                  Total CPU time used (sec):       95.543
                            User time (sec):       95.379
                          System time (sec):        0.164
                         Elapsed time (sec):       95.676
  
                   Maximum memory used (kb):      167460.
                   Average memory used (kb):           0.
  
                          Minor page faults:        50153
                          Major page faults:           11
                 Voluntary context switches:          671
