   4   4   1   0
  0.1728359E+02  0.4104226E-09  0.4104226E-09  0.4104226E-09  0.5000000E-15
  1.000000000000000E-004
  CAR 
 ScAl3                                   
     11.32935347     -3.38609559  301      7.22637284      1.00000000
     -3.386  0.0000E+00  0.0000E+00
     -3.337  0.0000E+00  0.0000E+00
     -3.288  0.0000E+00  0.0000E+00
     -3.239  0.0000E+00  0.0000E+00
     -3.190  0.0000E+00  0.0000E+00
     -3.141  0.0000E+00  0.0000E+00
     -3.092  0.0000E+00  0.0000E+00
     -3.043  0.0000E+00  0.0000E+00
     -2.994  0.0000E+00  0.0000E+00
     -2.945  0.0000E+00  0.0000E+00
     -2.896  0.0000E+00  0.0000E+00
     -2.847  0.0000E+00  0.0000E+00
     -2.797  0.0000E+00  0.0000E+00
     -2.748  0.0000E+00  0.0000E+00
     -2.699  0.4232E-01  0.2526E-03
     -2.650  0.1158E+00  0.4336E-02
     -2.601  0.1511E+00  0.1095E-01
     -2.552  0.1897E+00  0.1933E-01
     -2.503  0.2119E+00  0.2913E-01
     -2.454  0.2402E+00  0.4018E-01
     -2.405  0.2611E+00  0.5254E-01
     -2.356  0.2810E+00  0.6582E-01
     -2.307  0.3041E+00  0.8017E-01
     -2.258  0.3221E+00  0.9556E-01
     -2.209  0.3389E+00  0.1118E+00
     -2.160  0.3571E+00  0.1288E+00
     -2.111  0.3770E+00  0.1468E+00
     -2.062  0.3917E+00  0.1657E+00
     -2.013  0.4066E+00  0.1853E+00
     -1.964  0.4230E+00  0.2056E+00
     -1.915  0.4403E+00  0.2268E+00
     -1.865  0.4553E+00  0.2488E+00
     -1.816  0.4694E+00  0.2714E+00
     -1.767  0.4844E+00  0.2948E+00
     -1.718  0.4997E+00  0.3190E+00
     -1.669  0.5161E+00  0.3439E+00
     -1.620  0.5307E+00  0.3696E+00
     -1.571  0.5451E+00  0.3959E+00
     -1.522  0.5598E+00  0.4230E+00
     -1.473  0.5756E+00  0.4509E+00
     -1.424  0.5918E+00  0.4795E+00
     -1.375  0.6082E+00  0.5089E+00
     -1.326  0.6247E+00  0.5392E+00
     -1.277  0.6421E+00  0.5702E+00
     -1.228  0.6600E+00  0.6022E+00
     -1.179  0.6784E+00  0.6350E+00
     -1.130  0.6977E+00  0.6687E+00
     -1.081  0.7276E+00  0.7037E+00
     -1.032  0.7582E+00  0.7401E+00
     -0.983  0.7897E+00  0.7781E+00
     -0.934  0.8216E+00  0.8176E+00
     -0.884  0.9237E+00  0.8621E+00
     -0.835  0.9028E+00  0.9070E+00
     -0.786  0.8840E+00  0.9510E+00
     -0.737  0.8693E+00  0.9940E+00
     -0.688  0.8502E+00  0.1036E+01
     -0.639  0.8333E+00  0.1078E+01
     -0.590  0.8198E+00  0.1118E+01
     -0.541  0.7992E+00  0.1158E+01
     -0.492  0.7824E+00  0.1197E+01
     -0.443  0.7663E+00  0.1235E+01
     -0.394  0.7483E+00  0.1272E+01
     -0.345  0.7313E+00  0.1308E+01
     -0.296  0.7149E+00  0.1344E+01
     -0.247  0.6977E+00  0.1378E+01
     -0.198  0.6800E+00  0.1412E+01
     -0.149  0.6638E+00  0.1445E+01
     -0.100  0.6471E+00  0.1477E+01
     -0.051  0.6296E+00  0.1508E+01
     -0.002  0.6120E+00  0.1539E+01
      0.048  0.7015E+00  0.1572E+01
      0.097  0.7238E+00  0.1607E+01
      0.146  0.7488E+00  0.1643E+01
      0.195  0.7643E+00  0.1681E+01
      0.244  0.7854E+00  0.1719E+01
      0.293  0.8004E+00  0.1758E+01
      0.342  0.8076E+00  0.1797E+01
      0.391  0.8272E+00  0.1837E+01
      0.440  0.8305E+00  0.1878E+01
      0.489  0.8283E+00  0.1919E+01
      0.538  0.8084E+00  0.1960E+01
      0.587  0.7908E+00  0.1999E+01
      0.636  0.7853E+00  0.2037E+01
      0.685  0.7838E+00  0.2076E+01
      0.734  0.7878E+00  0.2114E+01
      0.783  0.7941E+00  0.2153E+01
      0.832  0.8029E+00  0.2192E+01
      0.881  0.8141E+00  0.2232E+01
      0.930  0.8268E+00  0.2272E+01
      0.979  0.8431E+00  0.2313E+01
      1.029  0.8607E+00  0.2355E+01
      1.078  0.8790E+00  0.2397E+01
      1.127  0.8988E+00  0.2441E+01
      1.176  0.9206E+00  0.2486E+01
      1.225  0.9434E+00  0.2531E+01
      1.274  0.9694E+00  0.2578E+01
      1.323  0.9992E+00  0.2627E+01
      1.372  0.1032E+01  0.2676E+01
      1.421  0.1065E+01  0.2728E+01
      1.470  0.1105E+01  0.2781E+01
      1.519  0.1222E+01  0.2839E+01
      1.568  0.1268E+01  0.2900E+01
      1.617  0.1503E+01  0.2963E+01
      1.666  0.1352E+01  0.3032E+01
      1.715  0.1348E+01  0.3098E+01
      1.764  0.1365E+01  0.3165E+01
      1.813  0.1405E+01  0.3233E+01
      1.862  0.1378E+01  0.3301E+01
      1.911  0.1374E+01  0.3368E+01
      1.961  0.1377E+01  0.3436E+01
      2.010  0.1373E+01  0.3503E+01
      2.059  0.1394E+01  0.3571E+01
      2.108  0.1399E+01  0.3640E+01
      2.157  0.1397E+01  0.3708E+01
      2.206  0.1377E+01  0.3776E+01
      2.255  0.1362E+01  0.3844E+01
      2.304  0.1361E+01  0.3910E+01
      2.353  0.1402E+01  0.3978E+01
      2.402  0.1387E+01  0.4046E+01
      2.451  0.1342E+01  0.4114E+01
      2.500  0.1445E+01  0.4182E+01
      2.549  0.1323E+01  0.4248E+01
      2.598  0.1276E+01  0.4312E+01
      2.647  0.1311E+01  0.4375E+01
      2.696  0.1214E+01  0.4436E+01
      2.745  0.1208E+01  0.4497E+01
      2.794  0.1133E+01  0.4554E+01
      2.843  0.1112E+01  0.4609E+01
      2.892  0.1079E+01  0.4663E+01
      2.942  0.1019E+01  0.4715E+01
      2.991  0.1039E+01  0.4764E+01
      3.040  0.1058E+01  0.4816E+01
      3.089  0.1090E+01  0.4868E+01
      3.138  0.1101E+01  0.4923E+01
      3.187  0.1075E+01  0.4976E+01
      3.236  0.1026E+01  0.5026E+01
      3.285  0.1028E+01  0.5077E+01
      3.334  0.1034E+01  0.5127E+01
      3.383  0.1043E+01  0.5178E+01
      3.432  0.1157E+01  0.5233E+01
      3.481  0.1133E+01  0.5287E+01
      3.530  0.1280E+01  0.5346E+01
      3.579  0.1257E+01  0.5409E+01
      3.628  0.1294E+01  0.5472E+01
      3.677  0.1311E+01  0.5536E+01
      3.726  0.1390E+01  0.5601E+01
      3.775  0.1396E+01  0.5669E+01
      3.824  0.1446E+01  0.5740E+01
      3.874  0.1507E+01  0.5812E+01
      3.923  0.1562E+01  0.5887E+01
      3.972  0.1500E+01  0.5962E+01
      4.021  0.1469E+01  0.6036E+01
      4.070  0.1539E+01  0.6108E+01
      4.119  0.1488E+01  0.6182E+01
      4.168  0.1556E+01  0.6256E+01
      4.217  0.1567E+01  0.6333E+01
      4.266  0.1702E+01  0.6413E+01
      4.315  0.1728E+01  0.6497E+01
      4.364  0.1759E+01  0.6583E+01
      4.413  0.1843E+01  0.6671E+01
      4.462  0.1870E+01  0.6761E+01
      4.511  0.1878E+01  0.6853E+01
      4.560  0.1844E+01  0.6945E+01
      4.609  0.1947E+01  0.7037E+01
      4.658  0.1958E+01  0.7132E+01
      4.707  0.1976E+01  0.7229E+01
      4.756  0.1939E+01  0.7325E+01
      4.806  0.1941E+01  0.7421E+01
      4.855  0.2000E+01  0.7517E+01
      4.904  0.2050E+01  0.7617E+01
      4.953  0.2068E+01  0.7718E+01
      5.002  0.2088E+01  0.7821E+01
      5.051  0.2104E+01  0.7924E+01
      5.100  0.2155E+01  0.8028E+01
      5.149  0.2231E+01  0.8136E+01
      5.198  0.2280E+01  0.8248E+01
      5.247  0.2375E+01  0.8361E+01
      5.296  0.2365E+01  0.8477E+01
      5.345  0.2472E+01  0.8595E+01
      5.394  0.2704E+01  0.8722E+01
      5.443  0.3010E+01  0.8862E+01
      5.492  0.3048E+01  0.9013E+01
      5.541  0.2733E+01  0.9159E+01
      5.590  0.2234E+01  0.9274E+01
      5.639  0.2426E+01  0.9388E+01
      5.688  0.2712E+01  0.9514E+01
      5.737  0.3249E+01  0.9659E+01
      5.787  0.2772E+01  0.9809E+01
      5.836  0.2504E+01  0.9938E+01
      5.885  0.2252E+01  0.1005E+02
      5.934  0.2036E+01  0.1016E+02
      5.983  0.1898E+01  0.1026E+02
      6.032  0.1771E+01  0.1035E+02
      6.081  0.1664E+01  0.1043E+02
      6.130  0.1565E+01  0.1051E+02
      6.179  0.1494E+01  0.1058E+02
      6.228  0.1439E+01  0.1066E+02
      6.277  0.1399E+01  0.1073E+02
      6.326  0.1366E+01  0.1079E+02
      6.375  0.1337E+01  0.1086E+02
      6.424  0.1286E+01  0.1092E+02
      6.473  0.1252E+01  0.1099E+02
      6.522  0.1257E+01  0.1105E+02
      6.571  0.1268E+01  0.1111E+02
      6.620  0.1279E+01  0.1117E+02
      6.669  0.1350E+01  0.1124E+02
      6.719  0.1426E+01  0.1131E+02
      6.768  0.1415E+01  0.1137E+02
      6.817  0.1395E+01  0.1144E+02
      6.866  0.1392E+01  0.1151E+02
      6.915  0.1380E+01  0.1158E+02
      6.964  0.1377E+01  0.1165E+02
      7.013  0.1371E+01  0.1172E+02
      7.062  0.1353E+01  0.1178E+02
      7.111  0.1338E+01  0.1185E+02
      7.160  0.1312E+01  0.1191E+02
      7.209  0.1306E+01  0.1198E+02
      7.258  0.1310E+01  0.1204E+02
      7.307  0.1310E+01  0.1211E+02
      7.356  0.1267E+01  0.1217E+02
      7.405  0.1356E+01  0.1223E+02
      7.454  0.1427E+01  0.1230E+02
      7.503  0.1411E+01  0.1237E+02
      7.552  0.1232E+01  0.1244E+02
      7.601  0.1176E+01  0.1250E+02
      7.650  0.1222E+01  0.1255E+02
      7.700  0.1321E+01  0.1262E+02
      7.749  0.1442E+01  0.1268E+02
      7.798  0.1641E+01  0.1276E+02
      7.847  0.1708E+01  0.1284E+02
      7.896  0.1850E+01  0.1293E+02
      7.945  0.2059E+01  0.1303E+02
      7.994  0.2260E+01  0.1313E+02
      8.043  0.2615E+01  0.1325E+02
      8.092  0.3186E+01  0.1339E+02
      8.141  0.3808E+01  0.1356E+02
      8.190  0.3279E+01  0.1374E+02
      8.239  0.2881E+01  0.1389E+02
      8.288  0.2593E+01  0.1403E+02
      8.337  0.2379E+01  0.1415E+02
      8.386  0.2120E+01  0.1426E+02
      8.435  0.1906E+01  0.1436E+02
      8.484  0.1715E+01  0.1445E+02
      8.533  0.1760E+01  0.1453E+02
      8.582  0.2142E+01  0.1463E+02
      8.632  0.2154E+01  0.1473E+02
      8.681  0.2819E+01  0.1486E+02
      8.730  0.3302E+01  0.1501E+02
      8.779  0.3515E+01  0.1517E+02
      8.828  0.2941E+01  0.1533E+02
      8.877  0.2459E+01  0.1546E+02
      8.926  0.2341E+01  0.1558E+02
      8.975  0.2480E+01  0.1570E+02
      9.024  0.2685E+01  0.1583E+02
      9.073  0.2972E+01  0.1596E+02
      9.122  0.3484E+01  0.1612E+02
      9.171  0.4162E+01  0.1631E+02
      9.220  0.5003E+01  0.1655E+02
      9.269  0.4326E+01  0.1677E+02
      9.318  0.4432E+01  0.1698E+02
      9.367  0.3984E+01  0.1719E+02
      9.416  0.4342E+01  0.1739E+02
      9.465  0.3629E+01  0.1760E+02
      9.514  0.3680E+01  0.1778E+02
      9.563  0.3806E+01  0.1796E+02
      9.613  0.3885E+01  0.1815E+02
      9.662  0.3927E+01  0.1835E+02
      9.711  0.4050E+01  0.1854E+02
      9.760  0.3157E+01  0.1875E+02
      9.809  0.3022E+01  0.1891E+02
      9.858  0.2748E+01  0.1905E+02
      9.907  0.2676E+01  0.1918E+02
      9.956  0.2429E+01  0.1931E+02
     10.005  0.2141E+01  0.1942E+02
     10.054  0.1868E+01  0.1952E+02
     10.103  0.1683E+01  0.1960E+02
     10.152  0.1560E+01  0.1968E+02
     10.201  0.1396E+01  0.1976E+02
     10.250  0.1171E+01  0.1982E+02
     10.299  0.9342E+00  0.1987E+02
     10.348  0.6551E+00  0.1991E+02
     10.397  0.5065E+00  0.1994E+02
     10.446  0.4265E+00  0.1996E+02
     10.495  0.4141E+00  0.1998E+02
     10.545  0.1228E+00  0.2000E+02
     10.594  0.4200E-01  0.2000E+02
     10.643  0.1441E-01  0.2000E+02
     10.692  0.0000E+00  0.2000E+02
     10.741  0.0000E+00  0.2000E+02
     10.790  0.0000E+00  0.2000E+02
     10.839  0.0000E+00  0.2000E+02
     10.888  0.0000E+00  0.2000E+02
     10.937  0.0000E+00  0.2000E+02
     10.986  0.0000E+00  0.2000E+02
     11.035  0.0000E+00  0.2000E+02
     11.084  0.0000E+00  0.2000E+02
     11.133  0.0000E+00  0.2000E+02
     11.182  0.0000E+00  0.2000E+02
     11.231  0.0000E+00  0.2000E+02
     11.280  0.0000E+00  0.2000E+02
     11.329  0.0000E+00  0.2000E+02
     11.32935347     -3.38609559  301      7.22637284      1.00000000
     -3.386  0.0000E+00  0.0000E+00  0.0000E+00
     -3.337  0.0000E+00  0.0000E+00  0.0000E+00
     -3.288  0.0000E+00  0.0000E+00  0.0000E+00
     -3.239  0.0000E+00  0.0000E+00  0.0000E+00
     -3.190  0.0000E+00  0.0000E+00  0.0000E+00
     -3.141  0.0000E+00  0.0000E+00  0.0000E+00
     -3.092  0.0000E+00  0.0000E+00  0.0000E+00
     -3.043  0.0000E+00  0.0000E+00  0.0000E+00
     -2.994  0.0000E+00  0.0000E+00  0.0000E+00
     -2.945  0.0000E+00  0.0000E+00  0.0000E+00
     -2.896  0.0000E+00  0.0000E+00  0.0000E+00
     -2.847  0.0000E+00  0.0000E+00  0.0000E+00
     -2.797  0.0000E+00  0.0000E+00  0.0000E+00
     -2.748  0.0000E+00  0.0000E+00  0.0000E+00
     -2.699  0.6227E-02  0.2505E-04  0.7668E-07
     -2.650  0.1679E-01  0.2744E-03  0.1929E-05
     -2.601  0.2157E-01  0.6370E-03  0.7217E-05
     -2.552  0.2672E-01  0.1083E-02  0.1635E-04
     -2.503  0.2937E-01  0.1582E-02  0.3064E-04
     -2.454  0.3281E-01  0.2171E-02  0.5119E-04
     -2.405  0.3509E-01  0.2792E-02  0.7747E-04
     -2.356  0.3712E-01  0.3493E-02  0.1132E-03
     -2.307  0.3959E-01  0.4202E-02  0.1530E-03
     -2.258  0.4120E-01  0.5003E-02  0.2058E-03
     -2.209  0.4257E-01  0.5822E-02  0.2664E-03
     -2.160  0.4413E-01  0.6657E-02  0.3332E-03
     -2.111  0.4579E-01  0.7586E-02  0.4161E-03
     -2.062  0.4666E-01  0.8519E-02  0.5072E-03
     -2.013  0.4748E-01  0.9496E-02  0.6114E-03
     -1.964  0.4844E-01  0.1052E-01  0.7305E-03
     -1.915  0.4953E-01  0.1155E-01  0.8567E-03
     -1.865  0.5016E-01  0.1263E-01  0.9971E-03
     -1.816  0.5050E-01  0.1380E-01  0.1164E-02
     -1.767  0.5099E-01  0.1496E-01  0.1339E-02
     -1.718  0.5150E-01  0.1612E-01  0.1522E-02
     -1.669  0.5201E-01  0.1736E-01  0.1734E-02
     -1.620  0.5209E-01  0.1870E-01  0.1969E-02
     -1.571  0.5208E-01  0.2004E-01  0.2214E-02
     -1.522  0.5209E-01  0.2139E-01  0.2472E-02
     -1.473  0.5205E-01  0.2283E-01  0.2776E-02
     -1.424  0.5206E-01  0.2428E-01  0.3094E-02
     -1.375  0.5185E-01  0.2585E-01  0.3429E-02
     -1.326  0.5139E-01  0.2755E-01  0.3782E-02
     -1.277  0.5083E-01  0.2936E-01  0.4200E-02
     -1.228  0.5027E-01  0.3118E-01  0.4639E-02
     -1.179  0.4971E-01  0.3301E-01  0.5099E-02
     -1.130  0.4910E-01  0.3493E-01  0.5582E-02
     -1.081  0.4808E-01  0.3798E-01  0.6156E-02
     -1.032  0.4693E-01  0.4110E-01  0.6784E-02
     -0.983  0.4564E-01  0.4432E-01  0.7465E-02
     -0.934  0.4423E-01  0.4758E-01  0.8199E-02
     -0.884  0.4296E-01  0.5698E-01  0.9201E-02
     -0.835  0.4039E-01  0.5579E-01  0.1018E-01
     -0.786  0.3795E-01  0.5472E-01  0.1115E-01
     -0.737  0.3573E-01  0.5393E-01  0.1207E-01
     -0.688  0.3349E-01  0.5273E-01  0.1297E-01
     -0.639  0.3138E-01  0.5163E-01  0.1391E-01
     -0.590  0.2933E-01  0.5080E-01  0.1484E-01
     -0.541  0.2725E-01  0.4929E-01  0.1580E-01
     -0.492  0.2548E-01  0.4807E-01  0.1659E-01
     -0.443  0.2380E-01  0.4687E-01  0.1739E-01
     -0.394  0.2184E-01  0.4542E-01  0.1842E-01
     -0.345  0.2020E-01  0.4403E-01  0.1927E-01
     -0.296  0.1871E-01  0.4268E-01  0.2002E-01
     -0.247  0.1733E-01  0.4127E-01  0.2067E-01
     -0.198  0.1571E-01  0.3962E-01  0.2168E-01
     -0.149  0.1436E-01  0.3815E-01  0.2245E-01
     -0.100  0.1313E-01  0.3665E-01  0.2311E-01
     -0.051  0.1199E-01  0.3506E-01  0.2372E-01
     -0.002  0.1078E-01  0.3330E-01  0.2453E-01
      0.048  0.2865E-01  0.3261E-01  0.2797E-01
      0.097  0.3400E-01  0.3182E-01  0.2952E-01
      0.146  0.3980E-01  0.3115E-01  0.3105E-01
      0.195  0.4335E-01  0.3043E-01  0.3261E-01
      0.244  0.4792E-01  0.2996E-01  0.3411E-01
      0.293  0.5135E-01  0.2964E-01  0.3532E-01
      0.342  0.5319E-01  0.2953E-01  0.3619E-01
      0.391  0.5572E-01  0.2929E-01  0.3821E-01
      0.440  0.5754E-01  0.2917E-01  0.3873E-01
      0.489  0.5936E-01  0.2915E-01  0.3863E-01
      0.538  0.6141E-01  0.2913E-01  0.3663E-01
      0.587  0.6375E-01  0.2960E-01  0.3430E-01
      0.636  0.6531E-01  0.3041E-01  0.3323E-01
      0.685  0.6649E-01  0.3163E-01  0.3243E-01
      0.734  0.6772E-01  0.3299E-01  0.3207E-01
      0.783  0.6910E-01  0.3448E-01  0.3174E-01
      0.832  0.6984E-01  0.3633E-01  0.3170E-01
      0.881  0.7057E-01  0.3833E-01  0.3185E-01
      0.930  0.7146E-01  0.4040E-01  0.3202E-01
      0.979  0.7241E-01  0.4265E-01  0.3239E-01
      1.029  0.7326E-01  0.4507E-01  0.3285E-01
      1.078  0.7341E-01  0.4793E-01  0.3344E-01
      1.127  0.7350E-01  0.5081E-01  0.3420E-01
      1.176  0.7352E-01  0.5393E-01  0.3510E-01
      1.225  0.7354E-01  0.5709E-01  0.3608E-01
      1.274  0.7315E-01  0.6088E-01  0.3718E-01
      1.323  0.7246E-01  0.6517E-01  0.3849E-01
      1.372  0.7168E-01  0.6979E-01  0.3989E-01
      1.421  0.7081E-01  0.7462E-01  0.4137E-01
      1.470  0.6989E-01  0.8009E-01  0.4300E-01
      1.519  0.6952E-01  0.9585E-01  0.4559E-01
      1.568  0.6657E-01  0.1034E+00  0.4752E-01
      1.617  0.6473E-01  0.1361E+00  0.5105E-01
      1.666  0.5968E-01  0.1161E+00  0.5339E-01
      1.715  0.5634E-01  0.1151E+00  0.5702E-01
      1.764  0.5361E-01  0.1162E+00  0.6126E-01
      1.813  0.5217E-01  0.1187E+00  0.6684E-01
      1.862  0.4961E-01  0.1137E+00  0.7086E-01
      1.911  0.4746E-01  0.1111E+00  0.7563E-01
      1.961  0.4581E-01  0.1091E+00  0.8036E-01
      2.010  0.4353E-01  0.1065E+00  0.8523E-01
      2.059  0.4248E-01  0.1059E+00  0.9119E-01
      2.108  0.4114E-01  0.1036E+00  0.9690E-01
      2.157  0.3984E-01  0.9945E-01  0.1031E+00
      2.206  0.3763E-01  0.9488E-01  0.1075E+00
      2.255  0.3575E-01  0.9084E-01  0.1119E+00
      2.304  0.3450E-01  0.8705E-01  0.1178E+00
      2.353  0.3519E-01  0.8645E-01  0.1266E+00
      2.402  0.3536E-01  0.8143E-01  0.1303E+00
      2.451  0.3309E-01  0.7514E-01  0.1320E+00
      2.500  0.3231E-01  0.7360E-01  0.1547E+00
      2.549  0.3141E-01  0.7071E-01  0.1370E+00
      2.598  0.3031E-01  0.6875E-01  0.1325E+00
      2.647  0.3031E-01  0.6918E-01  0.1398E+00
      2.696  0.3012E-01  0.6606E-01  0.1265E+00
      2.745  0.2835E-01  0.6709E-01  0.1271E+00
      2.794  0.2606E-01  0.6242E-01  0.1213E+00
      2.843  0.2483E-01  0.6073E-01  0.1213E+00
      2.892  0.2377E-01  0.5976E-01  0.1181E+00
      2.942  0.2217E-01  0.5578E-01  0.1134E+00
      2.991  0.3483E-01  0.5372E-01  0.1157E+00
      3.040  0.3509E-01  0.5446E-01  0.1188E+00
      3.089  0.3724E-01  0.5668E-01  0.1240E+00
      3.138  0.4105E-01  0.5723E-01  0.1263E+00
      3.187  0.4186E-01  0.5596E-01  0.1244E+00
      3.236  0.4263E-01  0.5202E-01  0.1200E+00
      3.285  0.4390E-01  0.5207E-01  0.1205E+00
      3.334  0.4536E-01  0.5261E-01  0.1218E+00
      3.383  0.4707E-01  0.5317E-01  0.1238E+00
      3.432  0.5180E-01  0.6031E-01  0.1372E+00
      3.481  0.5533E-01  0.5891E-01  0.1295E+00
      3.530  0.6241E-01  0.6862E-01  0.1403E+00
      3.579  0.6389E-01  0.6654E-01  0.1383E+00
      3.628  0.6634E-01  0.6980E-01  0.1419E+00
      3.677  0.6860E-01  0.7203E-01  0.1455E+00
      3.726  0.7522E-01  0.7550E-01  0.1542E+00
      3.775  0.7341E-01  0.7885E-01  0.1576E+00
      3.824  0.7658E-01  0.8340E-01  0.1643E+00
      3.874  0.7981E-01  0.8970E-01  0.1705E+00
      3.923  0.8350E-01  0.9462E-01  0.1787E+00
      3.972  0.7794E-01  0.8668E-01  0.1830E+00
      4.021  0.7531E-01  0.8457E-01  0.1838E+00
      4.070  0.7392E-01  0.9101E-01  0.1905E+00
      4.119  0.7040E-01  0.9124E-01  0.1903E+00
      4.168  0.7101E-01  0.9924E-01  0.2005E+00
      4.217  0.6856E-01  0.1044E+00  0.2029E+00
      4.266  0.6891E-01  0.1269E+00  0.2131E+00
      4.315  0.6597E-01  0.1325E+00  0.2187E+00
      4.364  0.6080E-01  0.1413E+00  0.2256E+00
      4.413  0.5863E-01  0.1556E+00  0.2371E+00
      4.462  0.5626E-01  0.1553E+00  0.2491E+00
      4.511  0.5330E-01  0.1552E+00  0.2596E+00
      4.560  0.5117E-01  0.1496E+00  0.2633E+00
      4.609  0.5084E-01  0.1627E+00  0.2820E+00
      4.658  0.4973E-01  0.1614E+00  0.2904E+00
      4.707  0.4736E-01  0.1623E+00  0.3002E+00
      4.756  0.4399E-01  0.1572E+00  0.3037E+00
      4.806  0.4176E-01  0.1560E+00  0.3142E+00
      4.855  0.4106E-01  0.1587E+00  0.3333E+00
      4.904  0.4036E-01  0.1589E+00  0.3531E+00
      4.953  0.3863E-01  0.1567E+00  0.3678E+00
      5.002  0.3734E-01  0.1532E+00  0.3846E+00
      5.051  0.3684E-01  0.1483E+00  0.4002E+00
      5.100  0.3675E-01  0.1470E+00  0.4218E+00
      5.149  0.3591E-01  0.1475E+00  0.4480E+00
      5.198  0.3489E-01  0.1459E+00  0.4706E+00
      5.247  0.3347E-01  0.1470E+00  0.5052E+00
      5.296  0.3116E-01  0.1427E+00  0.5099E+00
      5.345  0.2994E-01  0.1445E+00  0.5424E+00
      5.394  0.2982E-01  0.1502E+00  0.6097E+00
      5.443  0.2851E-01  0.1657E+00  0.6785E+00
      5.492  0.2623E-01  0.1383E+00  0.7619E+00
      5.541  0.2452E-01  0.1110E+00  0.7242E+00
      5.590  0.2328E-01  0.9565E-01  0.6018E+00
      5.639  0.2359E-01  0.8923E-01  0.6980E+00
      5.688  0.2409E-01  0.8838E-01  0.8237E+00
      5.737  0.2426E-01  0.9096E-01  0.1053E+01
      5.787  0.2273E-01  0.8163E-01  0.8708E+00
      5.836  0.2168E-01  0.7318E-01  0.7919E+00
      5.885  0.2017E-01  0.6573E-01  0.7154E+00
      5.934  0.1885E-01  0.5958E-01  0.6496E+00
      5.983  0.1757E-01  0.5446E-01  0.6138E+00
      6.032  0.1665E-01  0.5011E-01  0.5785E+00
      6.081  0.1604E-01  0.4628E-01  0.5494E+00
      6.130  0.1591E-01  0.4304E-01  0.5209E+00
      6.179  0.1583E-01  0.4039E-01  0.5019E+00
      6.228  0.1583E-01  0.3817E-01  0.4885E+00
      6.277  0.1593E-01  0.3605E-01  0.4814E+00
      6.326  0.1600E-01  0.3399E-01  0.4777E+00
      6.375  0.1609E-01  0.3212E-01  0.4747E+00
      6.424  0.1619E-01  0.3039E-01  0.4606E+00
      6.473  0.1632E-01  0.2910E-01  0.4523E+00
      6.522  0.1649E-01  0.2809E-01  0.4619E+00
      6.571  0.1676E-01  0.2732E-01  0.4736E+00
      6.620  0.1701E-01  0.2675E-01  0.4837E+00
      6.669  0.1721E-01  0.2642E-01  0.5244E+00
      6.719  0.1736E-01  0.2631E-01  0.5656E+00
      6.768  0.1747E-01  0.2609E-01  0.5614E+00
      6.817  0.1753E-01  0.2582E-01  0.5534E+00
      6.866  0.1765E-01  0.2580E-01  0.5531E+00
      6.915  0.1769E-01  0.2581E-01  0.5482E+00
      6.964  0.1781E-01  0.2598E-01  0.5475E+00
      7.013  0.1780E-01  0.2601E-01  0.5459E+00
      7.062  0.1793E-01  0.2612E-01  0.5381E+00
      7.111  0.1822E-01  0.2634E-01  0.5305E+00
      7.160  0.1860E-01  0.2643E-01  0.5178E+00
      7.209  0.1975E-01  0.2697E-01  0.5110E+00
      7.258  0.2251E-01  0.2771E-01  0.5043E+00
      7.307  0.2775E-01  0.2835E-01  0.4867E+00
      7.356  0.2990E-01  0.2892E-01  0.4555E+00
      7.405  0.3623E-01  0.3074E-01  0.4797E+00
      7.454  0.4298E-01  0.3243E-01  0.4940E+00
      7.503  0.4733E-01  0.3364E-01  0.4708E+00
      7.552  0.4240E-01  0.3264E-01  0.3938E+00
      7.601  0.3960E-01  0.3238E-01  0.3730E+00
      7.650  0.4118E-01  0.3419E-01  0.3879E+00
      7.700  0.4412E-01  0.3962E-01  0.4199E+00
      7.749  0.4741E-01  0.4363E-01  0.4680E+00
      7.798  0.5256E-01  0.4923E-01  0.5532E+00
      7.847  0.5139E-01  0.5228E-01  0.5889E+00
      7.896  0.5133E-01  0.5973E-01  0.6517E+00
      7.945  0.5181E-01  0.7018E-01  0.7433E+00
      7.994  0.5243E-01  0.8099E-01  0.8253E+00
      8.043  0.5608E-01  0.1044E+00  0.9490E+00
      8.092  0.5981E-01  0.1437E+00  0.1150E+01
      8.141  0.5952E-01  0.2080E+00  0.1300E+01
      8.190  0.5404E-01  0.1659E+00  0.1156E+01
      8.239  0.4925E-01  0.1248E+00  0.1079E+01
      8.288  0.5030E-01  0.1057E+00  0.9980E+00
      8.337  0.5020E-01  0.9355E-01  0.9265E+00
      8.386  0.4395E-01  0.8698E-01  0.8236E+00
      8.435  0.4026E-01  0.8223E-01  0.7276E+00
      8.484  0.3787E-01  0.8326E-01  0.5999E+00
      8.533  0.3812E-01  0.8766E-01  0.6363E+00
      8.582  0.4872E-01  0.1078E+00  0.7653E+00
      8.632  0.6546E-01  0.9775E-01  0.8408E+00
      8.681  0.1140E+00  0.1064E+00  0.1154E+01
      8.730  0.1387E+00  0.1213E+00  0.1388E+01
      8.779  0.1599E+00  0.1212E+00  0.1528E+01
      8.828  0.1561E+00  0.9564E-01  0.1320E+01
      8.877  0.1513E+00  0.7925E-01  0.1159E+01
      8.926  0.1565E+00  0.7881E-01  0.1144E+01
      8.975  0.1670E+00  0.8830E-01  0.1235E+01
      9.024  0.1845E+00  0.9733E-01  0.1362E+01
      9.073  0.2120E+00  0.1084E+00  0.1535E+01
      9.122  0.2574E+00  0.1225E+00  0.1842E+01
      9.171  0.3423E+00  0.1436E+00  0.2233E+01
      9.220  0.4595E+00  0.1715E+00  0.2724E+01
      9.269  0.2878E+00  0.1569E+00  0.2383E+01
      9.318  0.2679E+00  0.1580E+00  0.2509E+01
      9.367  0.1248E+00  0.1220E+00  0.2403E+01
      9.416  0.8043E-01  0.1151E+00  0.2760E+01
      9.465  0.5742E-01  0.1136E+00  0.2282E+01
      9.514  0.5978E-01  0.1182E+00  0.2342E+01
      9.563  0.6097E-01  0.1365E+00  0.2422E+01
      9.613  0.5704E-01  0.1380E+00  0.2512E+01
      9.662  0.5790E-01  0.1457E+00  0.2546E+01
      9.711  0.6221E-01  0.1540E+00  0.2658E+01
      9.760  0.6867E-01  0.1576E+00  0.1796E+01
      9.809  0.7930E-01  0.1885E+00  0.1601E+01
      9.858  0.8111E-01  0.2039E+00  0.1306E+01
      9.907  0.6985E-01  0.2237E+00  0.1173E+01
      9.956  0.6213E-01  0.2170E+00  0.1044E+01
     10.005  0.5542E-01  0.1994E+00  0.8890E+00
     10.054  0.4959E-01  0.1863E+00  0.7412E+00
     10.103  0.4526E-01  0.1806E+00  0.6399E+00
     10.152  0.4128E-01  0.1776E+00  0.5697E+00
     10.201  0.3629E-01  0.1671E+00  0.5007E+00
     10.250  0.3040E-01  0.1409E+00  0.4345E+00
     10.299  0.2473E-01  0.1090E+00  0.3687E+00
     10.348  0.1962E-01  0.6238E-01  0.3175E+00
     10.397  0.1603E-01  0.4849E-01  0.2498E+00
     10.446  0.1430E-01  0.3965E-01  0.2147E+00
     10.495  0.1459E-01  0.3821E-01  0.2091E+00
     10.545  0.6693E-02  0.1546E-01  0.5744E-01
     10.594  0.2973E-02  0.6600E-02  0.1776E-01
     10.643  0.1138E-02  0.2505E-02  0.5718E-02
     10.692  0.0000E+00  0.0000E+00  0.0000E+00
     10.741  0.0000E+00  0.0000E+00  0.0000E+00
     10.790  0.0000E+00  0.0000E+00  0.0000E+00
     10.839  0.0000E+00  0.0000E+00  0.0000E+00
     10.888  0.0000E+00  0.0000E+00  0.0000E+00
     10.937  0.0000E+00  0.0000E+00  0.0000E+00
     10.986  0.0000E+00  0.0000E+00  0.0000E+00
     11.035  0.0000E+00  0.0000E+00  0.0000E+00
     11.084  0.0000E+00  0.0000E+00  0.0000E+00
     11.133  0.0000E+00  0.0000E+00  0.0000E+00
     11.182  0.0000E+00  0.0000E+00  0.0000E+00
     11.231  0.0000E+00  0.0000E+00  0.0000E+00
     11.280  0.0000E+00  0.0000E+00  0.0000E+00
     11.329  0.0000E+00  0.0000E+00  0.0000E+00
     11.32935347     -3.38609559  301      7.22637284      1.00000000
     -3.386  0.0000E+00  0.0000E+00  0.0000E+00
     -3.337  0.0000E+00  0.0000E+00  0.0000E+00
     -3.288  0.0000E+00  0.0000E+00  0.0000E+00
     -3.239  0.0000E+00  0.0000E+00  0.0000E+00
     -3.190  0.0000E+00  0.0000E+00  0.0000E+00
     -3.141  0.0000E+00  0.0000E+00  0.0000E+00
     -3.092  0.0000E+00  0.0000E+00  0.0000E+00
     -3.043  0.0000E+00  0.0000E+00  0.0000E+00
     -2.994  0.0000E+00  0.0000E+00  0.0000E+00
     -2.945  0.0000E+00  0.0000E+00  0.0000E+00
     -2.896  0.0000E+00  0.0000E+00  0.0000E+00
     -2.847  0.0000E+00  0.0000E+00  0.0000E+00
     -2.797  0.0000E+00  0.0000E+00  0.0000E+00
     -2.748  0.0000E+00  0.0000E+00  0.0000E+00
     -2.699  0.9488E-02  0.2254E-04  0.2546E-04
     -2.650  0.2577E-01  0.2455E-03  0.6634E-04
     -2.601  0.3338E-01  0.5741E-03  0.8228E-04
     -2.552  0.4162E-01  0.9801E-03  0.9958E-04
     -2.503  0.4611E-01  0.1444E-02  0.1064E-03
     -2.454  0.5189E-01  0.1990E-02  0.1170E-03
     -2.405  0.5594E-01  0.2572E-02  0.1239E-03
     -2.356  0.5968E-01  0.3232E-02  0.1308E-03
     -2.307  0.6409E-01  0.3910E-02  0.1397E-03
     -2.258  0.6727E-01  0.4679E-02  0.1472E-03
     -2.209  0.7010E-01  0.5472E-02  0.1553E-03
     -2.160  0.7323E-01  0.6290E-02  0.1648E-03
     -2.111  0.7662E-01  0.7199E-02  0.1774E-03
     -2.062  0.7877E-01  0.8132E-02  0.1886E-03
     -2.013  0.8087E-01  0.9118E-02  0.2016E-03
     -1.964  0.8325E-01  0.1016E-01  0.2177E-03
     -1.915  0.8580E-01  0.1121E-01  0.2354E-03
     -1.865  0.8767E-01  0.1233E-01  0.2542E-03
     -1.816  0.8918E-01  0.1355E-01  0.2769E-03
     -1.767  0.9087E-01  0.1478E-01  0.3011E-03
     -1.718  0.9258E-01  0.1603E-01  0.3266E-03
     -1.669  0.9439E-01  0.1737E-01  0.3567E-03
     -1.620  0.9553E-01  0.1883E-01  0.3905E-03
     -1.571  0.9650E-01  0.2032E-01  0.4259E-03
     -1.522  0.9747E-01  0.2184E-01  0.4634E-03
     -1.473  0.9846E-01  0.2349E-01  0.5079E-03
     -1.424  0.9949E-01  0.2516E-01  0.5549E-03
     -1.375  0.1001E+00  0.2699E-01  0.6047E-03
     -1.326  0.1004E+00  0.2900E-01  0.6577E-03
     -1.277  0.1005E+00  0.3117E-01  0.7204E-03
     -1.228  0.1006E+00  0.3338E-01  0.7868E-03
     -1.179  0.1006E+00  0.3564E-01  0.8569E-03
     -1.130  0.1005E+00  0.3804E-01  0.9309E-03
     -1.081  0.9980E-01  0.4181E-01  0.1018E-02
     -1.032  0.9879E-01  0.4572E-01  0.1115E-02
     -0.983  0.9746E-01  0.4982E-01  0.1221E-02
     -0.934  0.9579E-01  0.5404E-01  0.1336E-02
     -0.884  0.9447E-01  0.6553E-01  0.1493E-02
     -0.835  0.9067E-01  0.6493E-01  0.1648E-02
     -0.786  0.8701E-01  0.6447E-01  0.1800E-02
     -0.737  0.8363E-01  0.6432E-01  0.1941E-02
     -0.688  0.8011E-01  0.6373E-01  0.2077E-02
     -0.639  0.7687E-01  0.6329E-01  0.2212E-02
     -0.590  0.7363E-01  0.6319E-01  0.2341E-02
     -0.541  0.7019E-01  0.6240E-01  0.2470E-02
     -0.492  0.6725E-01  0.6180E-01  0.2577E-02
     -0.443  0.6444E-01  0.6123E-01  0.2682E-02
     -0.394  0.6106E-01  0.6070E-01  0.2795E-02
     -0.345  0.5818E-01  0.6006E-01  0.2891E-02
     -0.296  0.5553E-01  0.5938E-01  0.2975E-02
     -0.247  0.5301E-01  0.5856E-01  0.3044E-02
     -0.198  0.4993E-01  0.5794E-01  0.3127E-02
     -0.149  0.4731E-01  0.5729E-01  0.3188E-02
     -0.100  0.4484E-01  0.5651E-01  0.3237E-02
     -0.051  0.4251E-01  0.5559E-01  0.3279E-02
     -0.002  0.3987E-01  0.5483E-01  0.3312E-02
      0.048  0.7903E-01  0.5511E-01  0.3671E-02
      0.097  0.9160E-01  0.5499E-01  0.3803E-02
      0.146  0.1053E+00  0.5488E-01  0.3934E-02
      0.195  0.1144E+00  0.5517E-01  0.4011E-02
      0.244  0.1258E+00  0.5548E-01  0.4101E-02
      0.293  0.1350E+00  0.5568E-01  0.4173E-02
      0.342  0.1412E+00  0.5588E-01  0.4212E-02
      0.391  0.1488E+00  0.5746E-01  0.4244E-02
      0.440  0.1552E+00  0.5721E-01  0.4250E-02
      0.489  0.1618E+00  0.5613E-01  0.4259E-02
      0.538  0.1689E+00  0.5247E-01  0.4243E-02
      0.587  0.1771E+00  0.4865E-01  0.4244E-02
      0.636  0.1841E+00  0.4686E-01  0.4253E-02
      0.685  0.1909E+00  0.4566E-01  0.4286E-02
      0.734  0.1981E+00  0.4511E-01  0.4317E-02
      0.783  0.2058E+00  0.4467E-01  0.4354E-02
      0.832  0.2129E+00  0.4479E-01  0.4400E-02
      0.881  0.2207E+00  0.4510E-01  0.4467E-02
      0.930  0.2288E+00  0.4546E-01  0.4528E-02
      0.979  0.2375E+00  0.4612E-01  0.4599E-02