 vasp.4.6.36 17Feb09 complex 
 executed on             LinuxIFC date 2022.09.21  22:49:43
 running on    1 nodes
 distr:  one band on    1 nodes,    1 groups


--------------------------------------------------------------------------------------------------------


 INCAR:
 POTCAR:   PAW_GGA Sc 08Aug2001                   
 POTCAR:   PAW_GGA Al 05Jan2001                   
 POTCAR:   PAW_GGA Sc 08Aug2001                   
   VRHFIN =Sc: 3p4s3d                                                           
   LEXCH  = 91                                                                  
   EATOM  =    44.8673 eV,    3.2977 Ry                                         
                                                                                
   TITEL  = PAW_GGA Sc 08Aug2001                                                
   LULTRA =        F    use ultrasoft PP ?                                      
   IUNSCR =        1    unscreen: 0-lin 1-nonlin 2-no                           
   RPACOR =    2.000    partial core radius                                     
   POMASS =   44.956; ZVAL   =    3.000    mass and valenz                      
   RCORE  =    3.000    outmost cutoff radius                                   
   RWIGS  =    3.000; RWIGS  =    1.588    wigner-seitz radius (au A)           
   ENMAX  =  154.804; ENMIN  =  116.103 eV                                      
   RCLOC  =    1.776    cutoff for local pot                                    
   LCOR   =        T    correct aug charges                                     
   LPAW   =        T    paw PP                                                  
   EAUG   =  301.784                                                            
   DEXC   =    -.033                                                            
   RMAX   =    3.706    core radius for proj-oper                               
   RAUG   =    1.300    factor for augmentation sphere                          
   RDEP   =    3.011    radius for radial grids                                 
   QCUT   =   -3.373; QGAM   =    6.746    optimization parameters              
                                                                                
   Description                                                                  
     l     E      TYP  RCUT    TYP  RCUT                                        
     2   .000     23  3.000                                                     
     2   .000     23  3.000                                                     
     0   .000     23  3.000                                                     
     0  2.000     23  3.000                                                     
     1  -.400     23  3.000                                                     
     3   .000      7   .000                                                     
  local pseudopotential read in
  partial core-charges read in
  atomic valenz-charges read in
  non local Contribution for L=           2  read in
    real space projection operators read in
  non local Contribution for L=           2  read in
    real space projection operators read in
  non local Contribution for L=           0  read in
    real space projection operators read in
  non local Contribution for L=           0  read in
    real space projection operators read in
  non local Contribution for L=           1  read in
    real space projection operators read in
    PAW grid and wavefunctions read in
 
   number of l-projection  operators is LMAX  =           5
   number of lm-projection operators is LMMAX =          15
 
 POTCAR:   PAW_GGA Al 05Jan2001                   
   VRHFIN =Al: s2p1                                                             
   LEXCH  = 91                                                                  
   EATOM  =    53.6910 eV,    3.9462 Ry                                         
                                                                                
   TITEL  = PAW_GGA Al 05Jan2001                                                
   LULTRA =        F    use ultrasoft PP ?                                      
   IUNSCR =        1    unscreen: 0-lin 1-nonlin 2-no                           
   RPACOR =    1.500    partial core radius                                     
   POMASS =   26.982; ZVAL   =    3.000    mass and valenz                      
   RCORE  =    1.900    outmost cutoff radius                                   
   RWIGS  =    2.650; RWIGS  =    1.402    wigner-seitz radius (au A)           
   ENMAX  =  240.437; ENMIN  =  180.327 eV                                      
   ICORE  =        2    local potential                                         
   LCOR   =        T    correct aug charges                                     
   LPAW   =        T    paw PP                                                  
   EAUG   =  291.052                                                            
   DEXC   =    -.017                                                            
   RMAX   =    2.974    core radius for proj-oper                               
   RAUG   =    1.300    factor for augmentation sphere                          
   RDEP   =    1.966    core radius for depl-charge                             
   QCUT   =   -4.204; QGAM   =    8.408    optimization parameters              
                                                                                
   Description                                                                  
     l     E      TYP  RCUT    TYP  RCUT                                        
     0   .000     23  1.900                                                     
     0   .000     23  1.900                                                     
     1   .000     23  1.900                                                     
     1  1.000     23  1.900                                                     
     2   .000      7  1.900                                                     
  local pseudopotential read in
  partial core-charges read in
  atomic valenz-charges read in
  non local Contribution for L=           0  read in
    real space projection operators read in
  non local Contribution for L=           0  read in
    real space projection operators read in
  non local Contribution for L=           1  read in
    real space projection operators read in
  non local Contribution for L=           1  read in
    real space projection operators read in
    PAW grid and wavefunctions read in
 
   number of l-projection  operators is LMAX  =           4
   number of lm-projection operators is LMMAX =           8
 
 PAW_GGA Sc 08Aug2001                   :
 energy of atom  1       EATOM=  -44.8673
 kinetic energy error for atom=    0.0004 (will be added to EATOM!!)
 PAW_GGA Al 05Jan2001                   :
 energy of atom  2       EATOM=  -53.6910
 kinetic energy error for atom=    0.0011 (will be added to EATOM!!)
 
 EXHCAR: internal setup
 exchange correlation table for  LEXCH =        7
   RHO(1)=    0.500       N(1)  =     2000
   RHO(2)=  100.500       N(2)  =     4000
 
 POSCAR: Al3 Sc1                                 
  positions in direct lattice
  velocities in cartesian coordinates
 


--------------------------------------------------------------------------------------------------------


 ion  position               nearest neighbor table
   1  0.000  0.000  0.000-   2 2.90   3 2.90   4 2.90   2 2.90   3 2.90   2 2.90   4 2.90   2 2.90
                             3 2.90   4 2.90   3 2.90   4 2.90
   2  0.000  0.500  0.500-   1 2.90   3 2.90   4 2.90   1 2.90   4 2.90   1 2.90   3 2.90   1 2.90
                             3 2.90   4 2.90   4 2.90   3 2.90
   3  0.500  0.000  0.500-   1 2.90   2 2.90   4 2.90   1 2.90   4 2.90   2 2.90   4 2.90   4 2.90
                             1 2.90   2 2.90   1 2.90   2 2.90
   4  0.500  0.500  0.000-   1 2.90   2 2.90   3 2.90   2 2.90   3 2.90   1 2.90   3 2.90   3 2.90
                             1 2.90   2 2.90   2 2.90   1 2.90
 
  LATTYP: Found a simple cubic cell.
 ALAT       =     4.1042262439
  
  Lattice vectors:
  
 A1 = (   4.1042262439,   0.0000000000,   0.0000000000)
 A2 = (   0.0000000000,   4.1042262439,   0.0000000000)
 A3 = (   0.0000000000,   0.0000000000,   4.1042262439)
 Subroutine PRICEL returns:
 Original cell was already a primitive cell.
 

Analysis of symmetry for initial positions (statically):

 Routine SETGRP: Setting up the symmetry group for a 
 simple cubic supercell.


 Subroutine GETGRP returns: Found 48 space group operations
 (whereof 48 operations were pure point group operations)
 out of a pool of 48 trial point group operations.


The static configuration has the point symmetry O_h .

Analysis of symmetry for dynamics (positions and initial velocities):

 Subroutine DYNSYM returns: Found 48 space group operations
 (whereof 48 operations were pure point group operations)
 out of a pool of 48 trial space group operations
 (whereof 48 operations were pure point group operations)
 and found also     1 'primitive' translations


The dynamic configuration has the point symmetry O_h .
 
 
 KPOINTS: ScAl3                                   

Automatic generation of k-mesh.
 
 Subroutine IBZKPT returns following result:
 ===========================================
 
 Found    364 irreducible k-points:
 
 Following reciprocal coordinates:
            Coordinates               Weight
  0.000000  0.000000  0.000000      1.000000
  0.043478  0.000000  0.000000      6.000000
  0.086957  0.000000  0.000000      6.000000
  0.130435  0.000000  0.000000      6.000000
  0.173913  0.000000  0.000000      6.000000
  0.217391  0.000000  0.000000      6.000000
  0.260870  0.000000  0.000000      6.000000
  0.304348  0.000000  0.000000      6.000000
  0.347826  0.000000  0.000000      6.000000
  0.391304  0.000000  0.000000      6.000000
  0.434783  0.000000  0.000000      6.000000
  0.478261  0.000000  0.000000      6.000000
  0.043478  0.043478  0.000000     12.000000
  0.086957  0.043478  0.000000     24.000000
  0.130435  0.043478  0.000000     24.000000
  0.173913  0.043478  0.000000     24.000000
  0.217391  0.043478  0.000000     24.000000
  0.260870  0.043478  0.000000     24.000000
  0.304348  0.043478  0.000000     24.000000
  0.347826  0.043478  0.000000     24.000000
  0.391304  0.043478  0.000000     24.000000
  0.434783  0.043478  0.000000     24.000000
  0.478261  0.043478  0.000000     24.000000
  0.086957  0.086957  0.000000     12.000000
  0.130435  0.086957  0.000000     24.000000
  0.173913  0.086957  0.000000     24.000000
  0.217391  0.086957  0.000000     24.000000
  0.260870  0.086957  0.000000     24.000000
  0.304348  0.086957  0.000000     24.000000
  0.347826  0.086957  0.000000     24.000000
  0.391304  0.086957  0.000000     24.000000
  0.434783  0.086957  0.000000     24.000000
  0.478261  0.086957  0.000000     24.000000
  0.130435  0.130435  0.000000     12.000000
  0.173913  0.130435  0.000000     24.000000
  0.217391  0.130435  0.000000     24.000000
  0.260870  0.130435  0.000000     24.000000
  0.304348  0.130435  0.000000     24.000000
  0.347826  0.130435  0.000000     24.000000
  0.391304  0.130435  0.000000     24.000000
  0.434783  0.130435  0.000000     24.000000
  0.478261  0.130435  0.000000     24.000000
  0.173913  0.173913  0.000000     12.000000
  0.217391  0.173913  0.000000     24.000000
  0.260870  0.173913  0.000000     24.000000
  0.304348  0.173913  0.000000     24.000000
  0.347826  0.173913  0.000000     24.000000
  0.391304  0.173913  0.000000     24.000000
  0.434783  0.173913  0.000000     24.000000
  0.478261  0.173913  0.000000     24.000000
  0.217391  0.217391  0.000000     12.000000
  0.260870  0.217391  0.000000     24.000000
  0.304348  0.217391  0.000000     24.000000
  0.347826  0.217391  0.000000     24.000000
  0.391304  0.217391  0.000000     24.000000
  0.434783  0.217391  0.000000     24.000000
  0.478261  0.217391  0.000000     24.000000
  0.260870  0.260870  0.000000     12.000000
  0.304348  0.260870  0.000000     24.000000
  0.347826  0.260870  0.000000     24.000000
  0.391304  0.260870  0.000000     24.000000
  0.434783  0.260870  0.000000     24.000000
  0.478261  0.260870  0.000000     24.000000
  0.304348  0.304348  0.000000     12.000000
  0.347826  0.304348  0.000000     24.000000
  0.391304  0.304348  0.000000     24.000000
  0.434783  0.304348  0.000000     24.000000
  0.478261  0.304348  0.000000     24.000000
  0.347826  0.347826  0.000000     12.000000
  0.391304  0.347826  0.000000     24.000000
  0.434783  0.347826  0.000000     24.000000
  0.478261  0.347826  0.000000     24.000000
  0.391304  0.391304  0.000000     12.000000
  0.434783  0.391304  0.000000     24.000000
  0.478261  0.391304  0.000000     24.000000
  0.434783  0.434783  0.000000     12.000000
  0.478261  0.434783  0.000000     24.000000
  0.478261  0.478261  0.000000     12.000000
  0.043478  0.043478  0.043478      8.000000
  0.086957  0.043478  0.043478     24.000000
  0.130435  0.043478  0.043478     24.000000
  0.173913  0.043478  0.043478     24.000000
  0.217391  0.043478  0.043478     24.000000
  0.260870  0.043478  0.043478     24.000000
  0.304348  0.043478  0.043478     24.000000
  0.347826  0.043478  0.043478     24.000000
  0.391304  0.043478  0.043478     24.000000
  0.434783  0.043478  0.043478     24.000000
  0.478261  0.043478  0.043478     24.000000
  0.086957  0.086957  0.043478     24.000000
  0.130435  0.086957  0.043478     48.000000
  0.173913  0.086957  0.043478     48.000000
  0.217391  0.086957  0.043478     48.000000
  0.260870  0.086957  0.043478     48.000000
  0.304348  0.086957  0.043478     48.000000
  0.347826  0.086957  0.043478     48.000000
  0.391304  0.086957  0.043478     48.000000
  0.434783  0.086957  0.043478     48.000000
  0.478261  0.086957  0.043478     48.000000
  0.130435  0.130435  0.043478     24.000000
  0.173913  0.130435  0.043478     48.000000
  0.217391  0.130435  0.043478     48.000000
  0.260870  0.130435  0.043478     48.000000
  0.304348  0.130435  0.043478     48.000000
  0.347826  0.130435  0.043478     48.000000
  0.391304  0.130435  0.043478     48.000000
  0.434783  0.130435  0.043478     48.000000
  0.478261  0.130435  0.043478     48.000000
  0.173913  0.173913  0.043478     24.000000
  0.217391  0.173913  0.043478     48.000000
  0.260870  0.173913  0.043478     48.000000
  0.304348  0.173913  0.043478     48.000000
  0.347826  0.173913  0.043478     48.000000
  0.391304  0.173913  0.043478     48.000000
  0.434783  0.173913  0.043478     48.000000
  0.478261  0.173913  0.043478     48.000000
  0.217391  0.217391  0.043478     24.000000
  0.260870  0.217391  0.043478     48.000000
  0.304348  0.217391  0.043478     48.000000
  0.347826  0.217391  0.043478     48.000000
  0.391304  0.217391  0.043478     48.000000
  0.434783  0.217391  0.043478     48.000000
  0.478261  0.217391  0.043478     48.000000
  0.260870  0.260870  0.043478     24.000000
  0.304348  0.260870  0.043478     48.000000
  0.347826  0.260870  0.043478     48.000000
  0.391304  0.260870  0.043478     48.000000
  0.434783  0.260870  0.043478     48.000000
  0.478261  0.260870  0.043478     48.000000
  0.304348  0.304348  0.043478     24.000000
  0.347826  0.304348  0.043478     48.000000
  0.391304  0.304348  0.043478     48.000000
  0.434783  0.304348  0.043478     48.000000
  0.478261  0.304348  0.043478     48.000000
  0.347826  0.347826  0.043478     24.000000
  0.391304  0.347826  0.043478     48.000000
  0.434783  0.347826  0.043478     48.000000
  0.478261  0.347826  0.043478     48.000000
  0.391304  0.391304  0.043478     24.000000
  0.434783  0.391304  0.043478     48.000000
  0.478261  0.391304  0.043478     48.000000
  0.434783  0.434783  0.043478     24.000000
  0.478261  0.434783  0.043478     48.000000
  0.478261  0.478261  0.043478     24.000000
  0.086957  0.086957  0.086957      8.000000
  0.130435  0.086957  0.086957     24.000000
  0.173913  0.086957  0.086957     24.000000
  0.217391  0.086957  0.086957     24.000000
  0.260870  0.086957  0.086957     24.000000
  0.304348  0.086957  0.086957     24.000000
  0.347826  0.086957  0.086957     24.000000
  0.391304  0.086957  0.086957     24.000000
  0.434783  0.086957  0.086957     24.000000
  0.478261  0.086957  0.086957     24.000000
  0.130435  0.130435  0.086957     24.000000
  0.173913  0.130435  0.086957     48.000000
  0.217391  0.130435  0.086957     48.000000
  0.260870  0.130435  0.086957     48.000000
  0.304348  0.130435  0.086957     48.000000
  0.347826  0.130435  0.086957     48.000000
  0.391304  0.130435  0.086957     48.000000
  0.434783  0.130435  0.086957     48.000000
  0.478261  0.130435  0.086957     48.000000
  0.173913  0.173913  0.086957     24.000000
  0.217391  0.173913  0.086957     48.000000
  0.260870  0.173913  0.086957     48.000000
  0.304348  0.173913  0.086957     48.000000
  0.347826  0.173913  0.086957     48.000000
  0.391304  0.173913  0.086957     48.000000
  0.434783  0.173913  0.086957     48.000000
  0.478261  0.173913  0.086957     48.000000
  0.217391  0.217391  0.086957     24.000000
  0.260870  0.217391  0.086957     48.000000
  0.304348  0.217391  0.086957     48.000000
  0.347826  0.217391  0.086957     48.000000
  0.391304  0.217391  0.086957     48.000000
  0.434783  0.217391  0.086957     48.000000
  0.478261  0.217391  0.086957     48.000000
  0.260870  0.260870  0.086957     24.000000
  0.304348  0.260870  0.086957     48.000000
  0.347826  0.260870  0.086957     48.000000
  0.391304  0.260870  0.086957     48.000000
  0.434783  0.260870  0.086957     48.000000
  0.478261  0.260870  0.086957     48.000000
  0.304348  0.304348  0.086957     24.000000
  0.347826  0.304348  0.086957     48.000000
  0.391304  0.304348  0.086957     48.000000
  0.434783  0.304348  0.086957     48.000000
  0.478261  0.304348  0.086957     48.000000
  0.347826  0.347826  0.086957     24.000000
  0.391304  0.347826  0.086957     48.000000
  0.434783  0.347826  0.086957     48.000000
  0.478261  0.347826  0.086957     48.000000
  0.391304  0.391304  0.086957     24.000000
  0.434783  0.391304  0.086957     48.000000
  0.478261  0.391304  0.086957     48.000000
  0.434783  0.434783  0.086957     24.000000
  0.478261  0.434783  0.086957     48.000000
  0.478261  0.478261  0.086957     24.000000
  0.130435  0.130435  0.130435      8.000000
  0.173913  0.130435  0.130435     24.000000
  0.217391  0.130435  0.130435     24.000000
  0.260870  0.130435  0.130435     24.000000
  0.304348  0.130435  0.130435     24.000000
  0.347826  0.130435  0.130435     24.000000
  0.391304  0.130435  0.130435     24.000000
  0.434783  0.130435  0.130435     24.000000
  0.478261  0.130435  0.130435     24.000000
  0.173913  0.173913  0.130435     24.000000
  0.217391  0.173913  0.130435     48.000000
  0.260870  0.173913  0.130435     48.000000
  0.304348  0.173913  0.130435     48.000000
  0.347826  0.173913  0.130435     48.000000
  0.391304  0.173913  0.130435     48.000000
  0.434783  0.173913  0.130435     48.000000
  0.478261  0.173913  0.130435     48.000000
  0.217391  0.217391  0.130435     24.000000
  0.260870  0.217391  0.130435     48.000000
  0.304348  0.217391  0.130435     48.000000
  0.347826  0.217391  0.130435     48.000000
  0.391304  0.217391  0.130435     48.000000
  0.434783  0.217391  0.130435     48.000000
  0.478261  0.217391  0.130435     48.000000
  0.260870  0.260870  0.130435     24.000000
  0.304348  0.260870  0.130435     48.000000
  0.347826  0.260870  0.130435     48.000000
  0.391304  0.260870  0.130435     48.000000
  0.434783  0.260870  0.130435     48.000000
  0.478261  0.260870  0.130435     48.000000
  0.304348  0.304348  0.130435     24.000000
  0.347826  0.304348  0.130435     48.000000
  0.391304  0.304348  0.130435     48.000000
  0.434783  0.304348  0.130435     48.000000
  0.478261  0.304348  0.130435     48.000000
  0.347826  0.347826  0.130435     24.000000
  0.391304  0.347826  0.130435     48.000000
  0.434783  0.347826  0.130435     48.000000
  0.478261  0.347826  0.130435     48.000000
  0.391304  0.391304  0.130435     24.000000
  0.434783  0.391304  0.130435     48.000000
  0.478261  0.391304  0.130435     48.000000
  0.434783  0.434783  0.130435     24.000000
  0.478261  0.434783  0.130435     48.000000
  0.478261  0.478261  0.130435     24.000000
  0.173913  0.173913  0.173913      8.000000
  0.217391  0.173913  0.173913     24.000000
  0.260870  0.173913  0.173913     24.000000
  0.304348  0.173913  0.173913     24.000000
  0.347826  0.173913  0.173913     24.000000
  0.391304  0.173913  0.173913     24.000000
  0.434783  0.173913  0.173913     24.000000
  0.478261  0.173913  0.173913     24.000000
  0.217391  0.217391  0.173913     24.000000
  0.260870  0.217391  0.173913     48.000000
  0.304348  0.217391  0.173913     48.000000
  0.347826  0.217391  0.173913     48.000000
  0.391304  0.217391  0.173913     48.000000
  0.434783  0.217391  0.173913     48.000000
  0.478261  0.217391  0.173913     48.000000
  0.260870  0.260870  0.173913     24.000000
  0.304348  0.260870  0.173913     48.000000
  0.347826  0.260870  0.173913     48.000000
  0.391304  0.260870  0.173913     48.000000
  0.434783  0.260870  0.173913     48.000000
  0.478261  0.260870  0.173913     48.000000
  0.304348  0.304348  0.173913     24.000000
  0.347826  0.304348  0.173913     48.000000
  0.391304  0.304348  0.173913     48.000000
  0.434783  0.304348  0.173913     48.000000
  0.478261  0.304348  0.173913     48.000000
  0.347826  0.347826  0.173913     24.000000
  0.391304  0.347826  0.173913     48.000000
  0.434783  0.347826  0.173913     48.000000
  0.478261  0.347826  0.173913     48.000000
  0.391304  0.391304  0.173913     24.000000
  0.434783  0.391304  0.173913     48.000000
  0.478261  0.391304  0.173913     48.000000
  0.434783  0.434783  0.173913     24.000000
  0.478261  0.434783  0.173913     48.000000
  0.478261  0.478261  0.173913     24.000000
  0.217391  0.217391  0.217391      8.000000
  0.260870  0.217391  0.217391     24.000000
  0.304348  0.217391  0.217391     24.000000
  0.347826  0.217391  0.217391     24.000000
  0.391304  0.217391  0.217391     24.000000
  0.434783  0.217391  0.217391     24.000000
  0.478261  0.217391  0.217391     24.000000
  0.260870  0.260870  0.217391     24.000000
  0.304348  0.260870  0.217391     48.000000
  0.347826  0.260870  0.217391     48.000000
  0.391304  0.260870  0.217391     48.000000
  0.434783  0.260870  0.217391     48.000000
  0.478261  0.260870  0.217391     48.000000
  0.304348  0.304348  0.217391     24.000000
  0.347826  0.304348  0.217391     48.000000
  0.391304  0.304348  0.217391     48.000000
  0.434783  0.304348  0.217391     48.000000
  0.478261  0.304348  0.217391     48.000000
  0.347826  0.347826  0.217391     24.000000
  0.391304  0.347826  0.217391     48.000000
  0.434783  0.347826  0.217391     48.000000
  0.478261  0.347826  0.217391     48.000000
  0.391304  0.391304  0.217391     24.000000
  0.434783  0.391304  0.217391     48.000000
  0.478261  0.391304  0.217391     48.000000
  0.434783  0.434783  0.217391     24.000000
  0.478261  0.434783  0.217391     48.000000
  0.478261  0.478261  0.217391     24.000000
  0.260870  0.260870  0.260870      8.000000
  0.304348  0.260870  0.260870     24.000000
  0.347826  0.260870  0.260870     24.000000
  0.391304  0.260870  0.260870     24.000000
  0.434783  0.260870  0.260870     24.000000
  0.478261  0.260870  0.260870     24.000000
  0.304348  0.304348  0.260870     24.000000
  0.347826  0.304348  0.260870     48.000000
  0.391304  0.304348  0.260870     48.000000
  0.434783  0.304348  0.260870     48.000000
  0.478261  0.304348  0.260870     48.000000
  0.347826  0.347826  0.260870     24.000000
  0.391304  0.347826  0.260870     48.000000
  0.434783  0.347826  0.260870     48.000000
  0.478261  0.347826  0.260870     48.000000
  0.391304  0.391304  0.260870     24.000000
  0.434783  0.391304  0.260870     48.000000
  0.478261  0.391304  0.260870     48.000000
  0.434783  0.434783  0.260870     24.000000
  0.478261  0.434783  0.260870     48.000000
  0.478261  0.478261  0.260870     24.000000
  0.304348  0.304348  0.304348      8.000000
  0.347826  0.304348  0.304348     24.000000
  0.391304  0.304348  0.304348     24.000000
  0.434783  0.304348  0.304348     24.000000
  0.478261  0.304348  0.304348     24.000000
  0.347826  0.347826  0.304348     24.000000
  0.391304  0.347826  0.304348     48.000000
  0.434783  0.347826  0.304348     48.000000
  0.478261  0.347826  0.304348     48.000000
  0.391304  0.391304  0.304348     24.000000
  0.434783  0.391304  0.304348     48.000000
  0.478261  0.391304  0.304348     48.000000
  0.434783  0.434783  0.304348     24.000000
  0.478261  0.434783  0.304348     48.000000
  0.478261  0.478261  0.304348     24.000000
  0.347826  0.347826  0.347826      8.000000
  0.391304  0.347826  0.347826     24.000000
  0.434783  0.347826  0.347826     24.000000
  0.478261  0.347826  0.347826     24.000000
  0.391304  0.391304  0.347826     24.000000
  0.434783  0.391304  0.347826     48.000000
  0.478261  0.391304  0.347826     48.000000
  0.434783  0.434783  0.347826     24.000000
  0.478261  0.434783  0.347826     48.000000
  0.478261  0.478261  0.347826     24.000000
  0.391304  0.391304  0.391304      8.000000
  0.434783  0.391304  0.391304     24.000000
  0.478261  0.391304  0.391304     24.000000
  0.434783  0.434783  0.391304     24.000000
  0.478261  0.434783  0.391304     48.000000
  0.478261  0.478261  0.391304     24.000000
  0.434783  0.434783  0.434783      8.000000
  0.478261  0.434783  0.434783     24.000000
  0.478261  0.478261  0.434783     24.000000
  0.478261  0.478261  0.478261      8.000000
 
 Following cartesian coordinates:
            Coordinates               Weight
  0.000000  0.000000  0.000000      1.000000
  0.010594  0.000000  0.000000      6.000000
  0.021187  0.000000  0.000000      6.000000
  0.031781  0.000000  0.000000      6.000000
  0.042374  0.000000  0.000000      6.000000
  0.052968  0.000000  0.000000      6.000000
  0.063561  0.000000  0.000000      6.000000
  0.074155  0.000000  0.000000      6.000000
  0.084748  0.000000  0.000000      6.000000
  0.095342  0.000000  0.000000      6.000000
  0.105935  0.000000  0.000000      6.000000
  0.116529  0.000000  0.000000      6.000000
  0.010594  0.010594  0.000000     12.000000
  0.021187  0.010594  0.000000     24.000000
  0.031781  0.010594  0.000000     24.000000
  0.042374  0.010594  0.000000     24.000000
  0.052968  0.010594  0.000000     24.000000
  0.063561  0.010594  0.000000     24.000000
  0.074155  0.010594  0.000000     24.000000
  0.084748  0.010594  0.000000     24.000000
  0.095342  0.010594  0.000000     24.000000
  0.105935  0.010594  0.000000     24.000000
  0.116529  0.010594  0.000000     24.000000
  0.021187  0.021187  0.000000     12.000000
  0.031781  0.021187  0.000000     24.000000
  0.042374  0.021187  0.000000     24.000000
  0.052968  0.021187  0.000000     24.000000
  0.063561  0.021187  0.000000     24.000000
  0.074155  0.021187  0.000000     24.000000
  0.084748  0.021187  0.000000     24.000000
  0.095342  0.021187  0.000000     24.000000
  0.105935  0.021187  0.000000     24.000000
  0.116529  0.021187  0.000000     24.000000
  0.031781  0.031781  0.000000     12.000000
  0.042374  0.031781  0.000000     24.000000
  0.052968  0.031781  0.000000     24.000000
  0.063561  0.031781  0.000000     24.000000
  0.074155  0.031781  0.000000     24.000000
  0.084748  0.031781  0.000000     24.000000
  0.095342  0.031781  0.000000     24.000000
  0.105935  0.031781  0.000000     24.000000
  0.116529  0.031781  0.000000     24.000000
  0.042374  0.042374  0.000000     12.000000
  0.052968  0.042374  0.000000     24.000000
  0.063561  0.042374  0.000000     24.000000
  0.074155  0.042374  0.000000     24.000000
  0.084748  0.042374  0.000000     24.000000
  0.095342  0.042374  0.000000     24.000000
  0.105935  0.042374  0.000000     24.000000
  0.116529  0.042374  0.000000     24.000000
  0.052968  0.052968  0.000000     12.000000
  0.063561  0.052968  0.000000     24.000000
  0.074155  0.052968  0.000000     24.000000
  0.084748  0.052968  0.000000     24.000000
  0.095342  0.052968  0.000000     24.000000
  0.105935  0.052968  0.000000     24.000000
  0.116529  0.052968  0.000000     24.000000
  0.063561  0.063561  0.000000     12.000000
  0.074155  0.063561  0.000000     24.000000
  0.084748  0.063561  0.000000     24.000000
  0.095342  0.063561  0.000000     24.000000
  0.105935  0.063561  0.000000     24.000000
  0.116529  0.063561  0.000000     24.000000
  0.074155  0.074155  0.000000     12.000000
  0.084748  0.074155  0.000000     24.000000
  0.095342  0.074155  0.000000     24.000000
  0.105935  0.074155  0.000000     24.000000
  0.116529  0.074155  0.000000     24.000000
  0.084748  0.084748  0.000000     12.000000
  0.095342  0.084748  0.000000     24.000000
  0.105935  0.084748  0.000000     24.000000
  0.116529  0.084748  0.000000     24.000000
  0.095342  0.095342  0.000000     12.000000
  0.105935  0.095342  0.000000     24.000000
  0.116529  0.095342  0.000000     24.000000
  0.105935  0.105935  0.000000     12.000000
  0.116529  0.105935  0.000000     24.000000
  0.116529  0.116529  0.000000     12.000000
  0.010594  0.010594  0.010594      8.000000
  0.021187  0.010594  0.010594     24.000000
  0.031781  0.010594  0.010594     24.000000
  0.042374  0.010594  0.010594     24.000000
  0.052968  0.010594  0.010594     24.000000
  0.063561  0.010594  0.010594     24.000000
  0.074155  0.010594  0.010594     24.000000
  0.084748  0.010594  0.010594     24.000000
  0.095342  0.010594  0.010594     24.000000
  0.105935  0.010594  0.010594     24.000000
  0.116529  0.010594  0.010594     24.000000
  0.021187  0.021187  0.010594     24.000000
  0.031781  0.021187  0.010594     48.000000
  0.042374  0.021187  0.010594     48.000000
  0.052968  0.021187  0.010594     48.000000
  0.063561  0.021187  0.010594     48.000000
  0.074155  0.021187  0.010594     48.000000
  0.084748  0.021187  0.010594     48.000000
  0.095342  0.021187  0.010594     48.000000
  0.105935  0.021187  0.010594     48.000000
  0.116529  0.021187  0.010594     48.000000
  0.031781  0.031781  0.010594     24.000000
  0.042374  0.031781  0.010594     48.000000
  0.052968  0.031781  0.010594     48.000000
  0.063561  0.031781  0.010594     48.000000
  0.074155  0.031781  0.010594     48.000000
  0.084748  0.031781  0.010594     48.000000
  0.095342  0.031781  0.010594     48.000000
  0.105935  0.031781  0.010594     48.000000
  0.116529  0.031781  0.010594     48.000000
  0.042374  0.042374  0.010594     24.000000
  0.052968  0.042374  0.010594     48.000000
  0.063561  0.042374  0.010594     48.000000
  0.074155  0.042374  0.010594     48.000000
  0.084748  0.042374  0.010594     48.000000
  0.095342  0.042374  0.010594     48.000000
  0.105935  0.042374  0.010594     48.000000
  0.116529  0.042374  0.010594     48.000000
  0.052968  0.052968  0.010594     24.000000
  0.063561  0.052968  0.010594     48.000000
  0.074155  0.052968  0.010594     48.000000
  0.084748  0.052968  0.010594     48.000000
  0.095342  0.052968  0.010594     48.000000
  0.105935  0.052968  0.010594     48.000000
  0.116529  0.052968  0.010594     48.000000
  0.063561  0.063561  0.010594     24.000000
  0.074155  0.063561  0.010594     48.000000
  0.084748  0.063561  0.010594     48.000000
  0.095342  0.063561  0.010594     48.000000
  0.105935  0.063561  0.010594     48.000000
  0.116529  0.063561  0.010594     48.000000
  0.074155  0.074155  0.010594     24.000000
  0.084748  0.074155  0.010594     48.000000
  0.095342  0.074155  0.010594     48.000000
  0.105935  0.074155  0.010594     48.000000
  0.116529  0.074155  0.010594     48.000000
  0.084748  0.084748  0.010594     24.000000
  0.095342  0.084748  0.010594     48.000000
  0.105935  0.084748  0.010594     48.000000
  0.116529  0.084748  0.010594     48.000000
  0.095342  0.095342  0.010594     24.000000
  0.105935  0.095342  0.010594     48.000000
  0.116529  0.095342  0.010594     48.000000
  0.105935  0.105935  0.010594     24.000000
  0.116529  0.105935  0.010594     48.000000
  0.116529  0.116529  0.010594     24.000000
  0.021187  0.021187  0.021187      8.000000
  0.031781  0.021187  0.021187     24.000000
  0.042374  0.021187  0.021187     24.000000
  0.052968  0.021187  0.021187     24.000000
  0.063561  0.021187  0.021187     24.000000
  0.074155  0.021187  0.021187     24.000000
  0.084748  0.021187  0.021187     24.000000
  0.095342  0.021187  0.021187     24.000000
  0.105935  0.021187  0.021187     24.000000
  0.116529  0.021187  0.021187     24.000000
  0.031781  0.031781  0.021187     24.000000
  0.042374  0.031781  0.021187     48.000000
  0.052968  0.031781  0.021187     48.000000
  0.063561  0.031781  0.021187     48.000000
  0.074155  0.031781  0.021187     48.000000
  0.084748  0.031781  0.021187     48.000000
  0.095342  0.031781  0.021187     48.000000
  0.105935  0.031781  0.021187     48.000000
  0.116529  0.031781  0.021187     48.000000
  0.042374  0.042374  0.021187     24.000000
  0.052968  0.042374  0.021187     48.000000
  0.063561  0.042374  0.021187     48.000000
  0.074155  0.042374  0.021187     48.000000
  0.084748  0.042374  0.021187     48.000000
  0.095342  0.042374  0.021187     48.000000
  0.105935  0.042374  0.021187     48.000000
  0.116529  0.042374  0.021187     48.000000
  0.052968  0.052968  0.021187     24.000000
  0.063561  0.052968  0.021187     48.000000
  0.074155  0.052968  0.021187     48.000000
  0.084748  0.052968  0.021187     48.000000
  0.095342  0.052968  0.021187     48.000000
  0.105935  0.052968  0.021187     48.000000
  0.116529  0.052968  0.021187     48.000000
  0.063561  0.063561  0.021187     24.000000
  0.074155  0.063561  0.021187     48.000000
  0.084748  0.063561  0.021187     48.000000
  0.095342  0.063561  0.021187     48.000000
  0.105935  0.063561  0.021187     48.000000
  0.116529  0.063561  0.021187     48.000000
  0.074155  0.074155  0.021187     24.000000
  0.084748  0.074155  0.021187     48.000000
  0.095342  0.074155  0.021187     48.000000
  0.105935  0.074155  0.021187     48.000000
  0.116529  0.074155  0.021187     48.000000
  0.084748  0.084748  0.021187     24.000000
  0.095342  0.084748  0.021187     48.000000
  0.105935  0.084748  0.021187     48.000000
  0.116529  0.084748  0.021187     48.000000
  0.095342  0.095342  0.021187     24.000000
  0.105935  0.095342  0.021187     48.000000
  0.116529  0.095342  0.021187     48.000000
  0.105935  0.105935  0.021187     24.000000
  0.116529  0.105935  0.021187     48.000000
  0.116529  0.116529  0.021187     24.000000
  0.031781  0.031781  0.031781      8.000000
  0.042374  0.031781  0.031781     24.000000
  0.052968  0.031781  0.031781     24.000000
  0.063561  0.031781  0.031781     24.000000
  0.074155  0.031781  0.031781     24.000000
  0.084748  0.031781  0.031781     24.000000
  0.095342  0.031781  0.031781     24.000000
  0.105935  0.031781  0.031781     24.000000
  0.116529  0.031781  0.031781     24.000000
  0.042374  0.042374  0.031781     24.000000
  0.052968  0.042374  0.031781     48.000000
  0.063561  0.042374  0.031781     48.000000
  0.074155  0.042374  0.031781     48.000000
  0.084748  0.042374  0.031781     48.000000
  0.095342  0.042374  0.031781     48.000000
  0.105935  0.042374  0.031781     48.000000
  0.116529  0.042374  0.031781     48.000000
  0.052968  0.052968  0.031781     24.000000
  0.063561  0.052968  0.031781     48.000000
  0.074155  0.052968  0.031781     48.000000
  0.084748  0.052968  0.031781     48.000000
  0.095342  0.052968  0.031781     48.000000
  0.105935  0.052968  0.031781     48.000000
  0.116529  0.052968  0.031781     48.000000
  0.063561  0.063561  0.031781     24.000000
  0.074155  0.063561  0.031781     48.000000
  0.084748  0.063561  0.031781     48.000000
  0.095342  0.063561  0.031781     48.000000
  0.105935  0.063561  0.031781     48.000000
  0.116529  0.063561  0.031781     48.000000
  0.074155  0.074155  0.031781     24.000000
  0.084748  0.074155  0.031781     48.000000
  0.095342  0.074155  0.031781     48.000000
  0.105935  0.074155  0.031781     48.000000
  0.116529  0.074155  0.031781     48.000000
  0.084748  0.084748  0.031781     24.000000
  0.095342  0.084748  0.031781     48.000000
  0.105935  0.084748  0.031781     48.000000
  0.116529  0.084748  0.031781     48.000000
  0.095342  0.095342  0.031781     24.000000
  0.105935  0.095342  0.031781     48.000000
  0.116529  0.095342  0.031781     48.000000
  0.105935  0.105935  0.031781     24.000000
  0.116529  0.105935  0.031781     48.000000
  0.116529  0.116529  0.031781     24.000000
  0.042374  0.042374  0.042374      8.000000
  0.052968  0.042374  0.042374     24.000000
  0.063561  0.042374  0.042374     24.000000
  0.074155  0.042374  0.042374     24.000000
  0.084748  0.042374  0.042374     24.000000
  0.095342  0.042374  0.042374     24.000000
  0.105935  0.042374  0.042374     24.000000
  0.116529  0.042374  0.042374     24.000000
  0.052968  0.052968  0.042374     24.000000
  0.063561  0.052968  0.042374     48.000000
  0.074155  0.052968  0.042374     48.000000
  0.084748  0.052968  0.042374     48.000000
  0.095342  0.052968  0.042374     48.000000
  0.105935  0.052968  0.042374     48.000000
  0.116529  0.052968  0.042374     48.000000
  0.063561  0.063561  0.042374     24.000000
  0.074155  0.063561  0.042374     48.000000
  0.084748  0.063561  0.042374     48.000000
  0.095342  0.063561  0.042374     48.000000
  0.105935  0.063561  0.042374     48.000000
  0.116529  0.063561  0.042374     48.000000
  0.074155  0.074155  0.042374     24.000000
  0.084748  0.074155  0.042374     48.000000
  0.095342  0.074155  0.042374     48.000000
  0.105935  0.074155  0.042374     48.000000
  0.116529  0.074155  0.042374     48.000000
  0.084748  0.084748  0.042374     24.000000
  0.095342  0.084748  0.042374     48.000000
  0.105935  0.084748  0.042374     48.000000
  0.116529  0.084748  0.042374     48.000000
  0.095342  0.095342  0.042374     24.000000
  0.105935  0.095342  0.042374     48.000000
  0.116529  0.095342  0.042374     48.000000
  0.105935  0.105935  0.042374     24.000000
  0.116529  0.105935  0.042374     48.000000
  0.116529  0.116529  0.042374     24.000000
  0.052968  0.052968  0.052968      8.000000
  0.063561  0.052968  0.052968     24.000000
  0.074155  0.052968  0.052968     24.000000
  0.084748  0.052968  0.052968     24.000000
  0.095342  0.052968  0.052968     24.000000
  0.105935  0.052968  0.052968     24.000000
  0.116529  0.052968  0.052968     24.000000
  0.063561  0.063561  0.052968     24.000000
  0.074155  0.063561  0.052968     48.000000
  0.084748  0.063561  0.052968     48.000000
  0.095342  0.063561  0.052968     48.000000
  0.105935  0.063561  0.052968     48.000000
  0.116529  0.063561  0.052968     48.000000
  0.074155  0.074155  0.052968     24.000000
  0.084748  0.074155  0.052968     48.000000
  0.095342  0.074155  0.052968     48.000000
  0.105935  0.074155  0.052968     48.000000
  0.116529  0.074155  0.052968     48.000000
  0.084748  0.084748  0.052968     24.000000
  0.095342  0.084748  0.052968     48.000000
  0.105935  0.084748  0.052968     48.000000
  0.116529  0.084748  0.052968     48.000000
  0.095342  0.095342  0.052968     24.000000
  0.105935  0.095342  0.052968     48.000000
  0.116529  0.095342  0.052968     48.000000
  0.105935  0.105935  0.052968     24.000000
  0.116529  0.105935  0.052968     48.000000
  0.116529  0.116529  0.052968     24.000000
  0.063561  0.063561  0.063561      8.000000
  0.074155  0.063561  0.063561     24.000000
  0.084748  0.063561  0.063561     24.000000
  0.095342  0.063561  0.063561     24.000000
  0.105935  0.063561  0.063561     24.000000
  0.116529  0.063561  0.063561     24.000000
  0.074155  0.074155  0.063561     24.000000
  0.084748  0.074155  0.063561     48.000000
  0.095342  0.074155  0.063561     48.000000
  0.105935  0.074155  0.063561     48.000000
  0.116529  0.074155  0.063561     48.000000
  0.084748  0.084748  0.063561     24.000000
  0.095342  0.084748  0.063561     48.000000
  0.105935  0.084748  0.063561     48.000000
  0.116529  0.084748  0.063561     48.000000
  0.095342  0.095342  0.063561     24.000000
  0.105935  0.095342  0.063561     48.000000
  0.116529  0.095342  0.063561     48.000000
  0.105935  0.105935  0.063561     24.000000
  0.116529  0.105935  0.063561     48.000000
  0.116529  0.116529  0.063561     24.000000
  0.074155  0.074155  0.074155      8.000000
  0.084748  0.074155  0.074155     24.000000
  0.095342  0.074155  0.074155     24.000000
  0.105935  0.074155  0.074155     24.000000
  0.116529  0.074155  0.074155     24.000000
  0.084748  0.084748  0.074155     24.000000
  0.095342  0.084748  0.074155     48.000000
  0.105935  0.084748  0.074155     48.000000
  0.116529  0.084748  0.074155     48.000000
  0.095342  0.095342  0.074155     24.000000
  0.105935  0.095342  0.074155     48.000000
  0.116529  0.095342  0.074155     48.000000
  0.105935  0.105935  0.074155     24.000000
  0.116529  0.105935  0.074155     48.000000
  0.116529  0.116529  0.074155     24.000000
  0.084748  0.084748  0.084748      8.000000
  0.095342  0.084748  0.084748     24.000000
  0.105935  0.084748  0.084748     24.000000
  0.116529  0.084748  0.084748     24.000000
  0.095342  0.095342  0.084748     24.000000
  0.105935  0.095342  0.084748     48.000000
  0.116529  0.095342  0.084748     48.000000
  0.105935  0.105935  0.084748     24.000000
  0.116529  0.105935  0.084748     48.000000
  0.116529  0.116529  0.084748     24.000000
  0.095342  0.095342  0.095342      8.000000
  0.105935  0.095342  0.095342     24.000000
  0.116529  0.095342  0.095342     24.000000
  0.105935  0.105935  0.095342     24.000000
  0.116529  0.105935  0.095342     48.000000
  0.116529  0.116529  0.095342     24.000000
  0.105935  0.105935  0.105935      8.000000
  0.116529  0.105935  0.105935     24.000000
  0.116529  0.116529  0.105935     24.000000
  0.116529  0.116529  0.116529      8.000000
 
 TETIRR: Found   6051 inequivalent tetrahedra from    73002


--------------------------------------------------------------------------------------------------------




 Dimension of arrays:
   k-Points           NKPTS =    364   number of bands    NBANDS=     10
   number of dos      NEDOS =    301   number of ions     NIONS =      4
   non local maximal  LDIM  =      5   non local SUM 2l+1 LMDIM =     15
   total plane-waves  NPLWV =  13824
   max r-space proj   IRMAX =      1   max aug-charges    IRDMAX=   4854
   dimension x,y,z NGX =    24 NGY =   24 NGZ =   24
   dimension x,y,z NGXF=    32 NGYF=   32 NGZF=   32
   support grid    NGXF=    32 NGYF=   32 NGZF=   32
   ions per type =               1   3
 NGX,Y,Z   is equivalent  to a cutoff of   9.72,  9.72,  9.72 a.u.
 NGXF,Y,Z  is equivalent  to a cutoff of  12.96, 12.96, 12.96 a.u.


 I would recommend the setting:
   dimension x,y,z NGX =    23 NGY =   23 NGZ =   23
 SYSTEM =  ScAl3                                   
 POSCAR =  Al3 Sc1                                 

 Startparameter for this run:
   NWRITE =      2    write-flag & timer
   PREC   = high      medium, high low
   ISTART =      0    job   : 0-new  1-cont  2-samecut
   ICHARG =      2    charge: 1-file 2-atom 10-const
   ISPIN  =      1    spin polarized calculation?
   LNONCOLLINEAR =      F non collinear calculations
   LSORBIT =      F    spin-orbit coupling
   INIWAV =      1    electr: 0-lowe 1-rand  2-diag
   LASPH  =      F    aspherical Exc in radial PAW
   METAGGA=      F    non-selfconsistent MetaGGA calc.

 Electronic Relaxation 1
   ENCUT  =  300.5 eV  22.09 Ry    4.70 a.u.   5.80  5.80  5.80*2*pi/ulx,y,z
   ENINI  =  300.5     initial cutoff
   ENAUG  =  301.8 eV  augmentation charge cutoff
   NELM   =     60;   NELMIN=  2; NELMDL= -5     # of ELM steps 
   EDIFF  = 0.1E-04   stopping-criterion for ELM
   LREAL  =      F    real-space projection
   LCOMPAT=      F    compatible to vasp.4.4
   LREAL_COMPAT= F    compatible to vasp.4.5.1-3
   GGA_COMPAT  = T    GGA compatible to vasp.4.4-vasp.4.6
   LMAXPAW     = -100 max onsite density
   LMAXMIX     =    2 max onsite mixed and CHGCAR
   VOSKOWN=      0    Vosko Wilk Nusair interpolation
   ROPT   =    0.00000   0.00000
 Ionic relaxation
   EDIFFG = 0.1E-03   stopping-criterion for IOM
   NSW    =      0    number of steps for IOM
   NBLOCK =      1;   KBLOCK =      1    inner block; outer block 
   IBRION =     -1    ionic relax: 0-MD 1-quasi-New 2-CG
   NFREE  =      0    steps in history (QN), initial steepest desc. (CG)
   ISIF   =      2    stress and relaxation
   IWAVPR =     11    prediction:  0-non 1-charg 2-wave 3-comb
   ISYM   =      1    0-nonsym 1-usesym 2-fastsym
   LCORR  =      T    Harris-Foulkes like correction to forces

   POTIM  =   0.50    time-step for ionic-motion
   TEIN   =    0.0    initial temperature
   TEBEG  =    0.0;   TEEND  =   0.0 temperature during run
   SMASS  =  -3.00    Nose mass-parameter (am)
   estimated Nose-frequenzy (Omega)   =  0.10E-29 period in steps =****** mass=  -0.385E-27a.u.
   NPACO  =    256;   APACO  = 16.0  distance and # of slots for P.C.
   PSTRESS=    0.0 pullay stress

  Mass of Ions in am
   POMASS =  44.96 26.98
  Ionic Valenz
   ZVAL   =   3.00  3.00
  Atomic Wigner-Seitz radii
   RWIGS  =   1.75  1.55
   NELECT =      12.0000    total number of electrons
   NUPDOWN=      -1.0000    fix difference up-down

 DOS related values:
   EMIN   =  10.00;   EMAX   =-10.00  energy-range for DOS
   ISMEAR =    -5;   SIGMA  =   0.03  broadening in eV -4-tet -1-fermi 0-gaus

 Electronic relaxation 2 (details)
   IALGO  =     38    algorithm
   LDIAG  =      T    sub-space diagonalisation
   IMIX   =      4    mixing-type and parameters
     AMIX     =   0.40;   BMIX     =  1.00
     AMIX_MAG =   1.60;   BMIX_MAG =  1.00
     AMIN     =   0.10
     WC   =   100.;   INIMIX=   1;  MIXPRE=   1

 Intra band minimization:
   WEIMIN = 0.0000     energy-eigenvalue tresh-hold
   EBREAK =  0.25E-06  absolut break condition
   DEPER  =   0.30     relativ break condition  

   TIME   =   0.10     timestep for ELM

  volume/ion in A,a.u.               =      17.28       116.64
  Fermi-wavevector in a.u.,eV,Ry     =   0.913210 11.346611  0.833952

 Second variation
   LSECVAR=     F    do a second variation
 
 Write flags
   LWAVE  =      F    write WAVECAR
   LCHARG =      T    write CHGCAR
   LVTOT  =      F    write LOCPOT, local potential
   LELF   =      F    write electronic localiz. function (ELF)
   LORBIT =      0    0 simple, 1 ext, 2 COOP (PROOUT)


 Dipole corrections
   IDIPOL =      0    1-x, 2-y, 3-z
   LDIPOL =      F    correct potential



--------------------------------------------------------------------------------------------------------


 Static calculation
 charge density will be updated during run
 non-spin polarized calculation
 Variant of blocked Davidson
 Davidson routine will perform the subspace rotation
 performe sub-space diagonalisation
    after iterative eigenvector-optimisation
 modified Broyden-mixing scheme, WC =      100.0
 initial mixing is a Kerker type mixing with AMIX =  0.4000 and BMIX =      1.0000
 Hartree-type preconditioning will be used
 using additional bands            4
 reciprocal scheme for non local part
 use partial core corrections
 calculate Harris-corrections to forces 
   (improved forces if not selfconsistent)
 use gradient corrections 
 use of overlap-Matrix (Vanderbilt PP)
 Fermi weights with tetrahedron method with Bloechl corrections


--------------------------------------------------------------------------------------------------------


  energy-cutoff  :      300.55
  volume of cell :       69.13
      direct lattice vectors                 reciprocal lattice vectors
     4.104226244  0.000000000  0.000000000     0.243651285  0.000000000  0.000000000
     0.000000000  4.104226244  0.000000000     0.000000000  0.243651285  0.000000000
     0.000000000  0.000000000  4.104226244     0.000000000  0.000000000  0.243651285

  length of vectors
     4.104226244  4.104226244  4.104226244     0.243651285  0.243651285  0.243651285


 
 k-points in units of 2pi/SCALE and weight: ScAl3                                   
   0.00000000  0.00000000  0.00000000       0.000
   0.01059353  0.00000000  0.00000000       0.000
   0.02118707  0.00000000  0.00000000       0.000
   0.03178060  0.00000000  0.00000000       0.000
   0.04237414  0.00000000  0.00000000       0.000
   0.05296767  0.00000000  0.00000000       0.000
   0.06356120  0.00000000  0.00000000       0.000
   0.07415474  0.00000000  0.00000000       0.000
   0.08474827  0.00000000  0.00000000       0.000
   0.09534181  0.00000000  0.00000000       0.000
   0.10593534  0.00000000  0.00000000       0.000
   0.11652888  0.00000000  0.00000000       0.000
   0.01059353  0.01059353  0.00000000       0.001
   0.02118707  0.01059353  0.00000000       0.002
   0.03178060  0.01059353  0.00000000       0.002
   0.04237414  0.01059353  0.00000000       0.002
   0.05296767  0.01059353  0.00000000       0.002
   0.06356120  0.01059353  0.00000000       0.002
   0.07415474  0.01059353  0.00000000       0.002
   0.08474827  0.01059353  0.00000000       0.002
   0.09534181  0.01059353  0.00000000       0.002
   0.10593534  0.01059353  0.00000000       0.002
   0.11652888  0.01059353  0.00000000       0.002
   0.02118707  0.02118707  0.00000000       0.001
   0.03178060  0.02118707  0.00000000       0.002
   0.04237414  0.02118707  0.00000000       0.002
   0.05296767  0.02118707  0.00000000       0.002
   0.06356120  0.02118707  0.00000000       0.002
   0.07415474  0.02118707  0.00000000       0.002
   0.08474827  0.02118707  0.00000000       0.002
   0.09534181  0.02118707  0.00000000       0.002
   0.10593534  0.02118707  0.00000000       0.002
   0.11652888  0.02118707  0.00000000       0.002
   0.03178060  0.03178060  0.00000000       0.001
   0.04237414  0.03178060  0.00000000       0.002
   0.05296767  0.03178060  0.00000000       0.002
   0.06356120  0.03178060  0.00000000       0.002
   0.07415474  0.03178060  0.00000000       0.002
   0.08474827  0.03178060  0.00000000       0.002
   0.09534181  0.03178060  0.00000000       0.002
   0.10593534  0.03178060  0.00000000       0.002
   0.11652888  0.03178060  0.00000000       0.002
   0.04237414  0.04237414  0.00000000       0.001
   0.05296767  0.04237414  0.00000000       0.002
   0.06356120  0.04237414  0.00000000       0.002
   0.07415474  0.04237414  0.00000000       0.002
   0.08474827  0.04237414  0.00000000       0.002
   0.09534181  0.04237414  0.00000000       0.002
   0.10593534  0.04237414  0.00000000       0.002
   0.11652888  0.04237414  0.00000000       0.002
   0.05296767  0.05296767  0.00000000       0.001
   0.06356120  0.05296767  0.00000000       0.002
   0.07415474  0.05296767  0.00000000       0.002
   0.08474827  0.05296767  0.00000000       0.002
   0.09534181  0.05296767  0.00000000       0.002
   0.10593534  0.05296767  0.00000000       0.002
   0.11652888  0.05296767  0.00000000       0.002
   0.06356120  0.06356120  0.00000000       0.001
   0.07415474  0.06356120  0.00000000       0.002
   0.08474827  0.06356120  0.00000000       0.002
   0.09534181  0.06356120  0.00000000       0.002
   0.10593534  0.06356120  0.00000000       0.002
   0.11652888  0.06356120  0.00000000       0.002
   0.07415474  0.07415474  0.00000000       0.001
   0.08474827  0.07415474  0.00000000       0.002
   0.09534181  0.07415474  0.00000000       0.002
   0.10593534  0.07415474  0.00000000       0.002
   0.11652888  0.07415474  0.00000000       0.002
   0.08474827  0.08474827  0.00000000       0.001
   0.09534181  0.08474827  0.00000000       0.002
   0.10593534  0.08474827  0.00000000       0.002
   0.11652888  0.08474827  0.00000000       0.002
   0.09534181  0.09534181  0.00000000       0.001
   0.10593534  0.09534181  0.00000000       0.002
   0.11652888  0.09534181  0.00000000       0.002
   0.10593534  0.10593534  0.00000000       0.001
   0.11652888  0.10593534  0.00000000       0.002
   0.11652888  0.11652888  0.00000000       0.001
   0.01059353  0.01059353  0.01059353       0.001
   0.02118707  0.01059353  0.01059353       0.002
   0.03178060  0.01059353  0.01059353       0.002
   0.04237414  0.01059353  0.01059353       0.002
   0.05296767  0.01059353  0.01059353       0.002
   0.06356120  0.01059353  0.01059353       0.002
   0.07415474  0.01059353  0.01059353       0.002
   0.08474827  0.01059353  0.01059353       0.002
   0.09534181  0.01059353  0.01059353       0.002
   0.10593534  0.01059353  0.01059353       0.002
   0.11652888  0.01059353  0.01059353       0.002
   0.02118707  0.02118707  0.01059353       0.002
   0.03178060  0.02118707  0.01059353       0.004
   0.04237414  0.02118707  0.01059353       0.004
   0.05296767  0.02118707  0.01059353       0.004
   0.06356120  0.02118707  0.01059353       0.004
   0.07415474  0.02118707  0.01059353       0.004
   0.08474827  0.02118707  0.01059353       0.004
   0.09534181  0.02118707  0.01059353       0.004
   0.10593534  0.02118707  0.01059353       0.004
   0.11652888  0.02118707  0.01059353       0.004
   0.03178060  0.03178060  0.01059353       0.002
   0.04237414  0.03178060  0.01059353       0.004
   0.05296767  0.03178060  0.01059353       0.004
   0.06356120  0.03178060  0.01059353       0.004
   0.07415474  0.03178060  0.01059353       0.004
   0.08474827  0.03178060  0.01059353       0.004
   0.09534181  0.03178060  0.01059353       0.004
   0.10593534  0.03178060  0.01059353       0.004
   0.11652888  0.03178060  0.01059353       0.004
   0.04237414  0.04237414  0.01059353       0.002
   0.05296767  0.04237414  0.01059353       0.004
   0.06356120  0.04237414  0.01059353       0.004
   0.07415474  0.04237414  0.01059353       0.004
   0.08474827  0.04237414  0.01059353       0.004
   0.09534181  0.04237414  0.01059353       0.004
   0.10593534  0.04237414  0.01059353       0.004
   0.11652888  0.04237414  0.01059353       0.004
   0.05296767  0.05296767  0.01059353       0.002
   0.06356120  0.05296767  0.01059353       0.004
   0.07415474  0.05296767  0.01059353       0.004
   0.08474827  0.05296767  0.01059353       0.004
   0.09534181  0.05296767  0.01059353       0.004
   0.10593534  0.05296767  0.01059353       0.004
   0.11652888  0.05296767  0.01059353       0.004
   0.06356120  0.06356120  0.01059353       0.002
   0.07415474  0.06356120  0.01059353       0.004
   0.08474827  0.06356120  0.01059353       0.004
   0.09534181  0.06356120  0.01059353       0.004
   0.10593534  0.06356120  0.01059353       0.004
   0.11652888  0.06356120  0.01059353       0.004
   0.07415474  0.07415474  0.01059353       0.002
   0.08474827  0.07415474  0.01059353       0.004
   0.09534181  0.07415474  0.01059353       0.004
   0.10593534  0.07415474  0.01059353       0.004
   0.11652888  0.07415474  0.01059353       0.004
   0.08474827  0.08474827  0.01059353       0.002
   0.09534181  0.08474827  0.01059353       0.004
   0.10593534  0.08474827  0.01059353       0.004
   0.11652888  0.08474827  0.01059353       0.004
   0.09534181  0.09534181  0.01059353       0.002
   0.10593534  0.09534181  0.01059353       0.004
   0.11652888  0.09534181  0.01059353       0.004
   0.10593534  0.10593534  0.01059353       0.002
   0.11652888  0.10593534  0.01059353       0.004
   0.11652888  0.11652888  0.01059353       0.002
   0.02118707  0.02118707  0.02118707       0.001
   0.03178060  0.02118707  0.02118707       0.002
   0.04237414  0.02118707  0.02118707       0.002
   0.05296767  0.02118707  0.02118707       0.002
   0.06356120  0.02118707  0.02118707       0.002
   0.07415474  0.02118707  0.02118707       0.002
   0.08474827  0.02118707  0.02118707       0.002
   0.09534181  0.02118707  0.02118707       0.002
   0.10593534  0.02118707  0.02118707       0.002
   0.11652888  0.02118707  0.02118707       0.002
   0.03178060  0.03178060  0.02118707       0.002
   0.04237414  0.03178060  0.02118707       0.004
   0.05296767  0.03178060  0.02118707       0.004
   0.06356120  0.03178060  0.02118707       0.004
   0.07415474  0.03178060  0.02118707       0.004
   0.08474827  0.03178060  0.02118707       0.004
   0.09534181  0.03178060  0.02118707       0.004
   0.10593534  0.03178060  0.02118707       0.004
   0.11652888  0.03178060  0.02118707       0.004
   0.04237414  0.04237414  0.02118707       0.002
   0.05296767  0.04237414  0.02118707       0.004
   0.06356120  0.04237414  0.02118707       0.004
   0.07415474  0.04237414  0.02118707       0.004
   0.08474827  0.04237414  0.02118707       0.004
   0.09534181  0.04237414  0.02118707       0.004
   0.10593534  0.04237414  0.02118707       0.004
   0.11652888  0.04237414  0.02118707       0.004
   0.05296767  0.05296767  0.02118707       0.002
   0.06356120  0.05296767  0.02118707       0.004
   0.07415474  0.05296767  0.02118707       0.004
   0.08474827  0.05296767  0.02118707       0.004
   0.09534181  0.05296767  0.02118707       0.004
   0.10593534  0.05296767  0.02118707       0.004
   0.11652888  0.05296767  0.02118707       0.004
   0.06356120  0.06356120  0.02118707       0.002
   0.07415474  0.06356120  0.02118707       0.004
   0.08474827  0.06356120  0.02118707       0.004
   0.09534181  0.06356120  0.02118707       0.004
   0.10593534  0.06356120  0.02118707       0.004
   0.11652888  0.06356120  0.02118707       0.004
   0.07415474  0.07415474  0.02118707       0.002
   0.08474827  0.07415474  0.02118707       0.004
   0.09534181  0.07415474  0.02118707       0.004
   0.10593534  0.07415474  0.02118707       0.004
   0.11652888  0.07415474  0.02118707       0.004
   0.08474827  0.08474827  0.02118707       0.002
   0.09534181  0.08474827  0.02118707       0.004
   0.10593534  0.08474827  0.02118707       0.004
   0.11652888  0.08474827  0.02118707       0.004
   0.09534181  0.09534181  0.02118707       0.002
   0.10593534  0.09534181  0.02118707       0.004
   0.11652888  0.09534181  0.02118707       0.004
   0.10593534  0.10593534  0.02118707       0.002
   0.11652888  0.10593534  0.02118707       0.004
   0.11652888  0.11652888  0.02118707       0.002
   0.03178060  0.03178060  0.03178060       0.001
   0.04237414  0.03178060  0.03178060       0.002
   0.05296767  0.03178060  0.03178060       0.002
   0.06356120  0.03178060  0.03178060       0.002
   0.07415474  0.03178060  0.03178060       0.002
   0.08474827  0.03178060  0.03178060       0.002
   0.09534181  0.03178060  0.03178060       0.002
   0.10593534  0.03178060  0.03178060       0.002
   0.11652888  0.03178060  0.03178060       0.002
   0.04237414  0.04237414  0.03178060       0.002
   0.05296767  0.04237414  0.03178060       0.004
   0.06356120  0.04237414  0.03178060       0.004
   0.07415474  0.04237414  0.03178060       0.004
   0.08474827  0.04237414  0.03178060       0.004
   0.09534181  0.04237414  0.03178060       0.004
   0.10593534  0.04237414  0.03178060       0.004
   0.11652888  0.04237414  0.03178060       0.004
   0.05296767  0.05296767  0.03178060       0.002
   0.06356120  0.05296767  0.03178060       0.004
   0.07415474  0.05296767  0.03178060       0.004
   0.08474827  0.05296767  0.03178060       0.004
   0.09534181  0.05296767  0.03178060       0.004
   0.10593534  0.05296767  0.03178060       0.004
   0.11652888  0.05296767  0.03178060       0.004
   0.06356120  0.06356120  0.03178060       0.002
   0.07415474  0.06356120  0.03178060       0.004
   0.08474827  0.06356120  0.03178060       0.004
   0.09534181  0.06356120  0.03178060       0.004
   0.10593534  0.06356120  0.03178060       0.004
   0.11652888  0.06356120  0.03178060       0.004
   0.07415474  0.07415474  0.03178060       0.002
   0.08474827  0.07415474  0.03178060       0.004
   0.09534181  0.07415474  0.03178060       0.004
   0.10593534  0.07415474  0.03178060       0.004
   0.11652888  0.07415474  0.03178060       0.004
   0.08474827  0.08474827  0.03178060       0.002
   0.09534181  0.08474827  0.03178060       0.004
   0.10593534  0.08474827  0.03178060       0.004
   0.11652888  0.08474827  0.03178060       0.004
   0.09534181  0.09534181  0.03178060       0.002
   0.10593534  0.09534181  0.03178060       0.004
   0.11652888  0.09534181  0.03178060       0.004
   0.10593534  0.10593534  0.03178060       0.002
   0.11652888  0.10593534  0.03178060       0.004
   0.11652888  0.11652888  0.03178060       0.002
   0.04237414  0.04237414  0.04237414       0.001
   0.05296767  0.04237414  0.04237414       0.002
   0.06356120  0.04237414  0.04237414       0.002
   0.07415474  0.04237414  0.04237414       0.002
   0.08474827  0.04237414  0.04237414       0.002
   0.09534181  0.04237414  0.04237414       0.002
   0.10593534  0.04237414  0.04237414       0.002
   0.11652888  0.04237414  0.04237414       0.002
   0.05296767  0.05296767  0.04237414       0.002
   0.06356120  0.05296767  0.04237414       0.004
   0.07415474  0.05296767  0.04237414       0.004
   0.08474827  0.05296767  0.04237414       0.004
   0.09534181  0.05296767  0.04237414       0.004
   0.10593534  0.05296767  0.04237414       0.004
   0.11652888  0.05296767  0.04237414       0.004
   0.06356120  0.06356120  0.04237414       0.002
   0.07415474  0.06356120  0.04237414       0.004
   0.08474827  0.06356120  0.04237414       0.004
   0.09534181  0.06356120  0.04237414       0.004
   0.10593534  0.06356120  0.04237414       0.004
   0.11652888  0.06356120  0.04237414       0.004
   0.07415474  0.07415474  0.04237414       0.002
   0.08474827  0.07415474  0.04237414       0.004
   0.09534181  0.07415474  0.04237414       0.004
   0.10593534  0.07415474  0.04237414       0.004
   0.11652888  0.07415474  0.04237414       0.004
   0.08474827  0.08474827  0.04237414       0.002
   0.09534181  0.08474827  0.04237414       0.004
   0.10593534  0.08474827  0.04237414       0.004
   0.11652888  0.08474827  0.04237414       0.004
   0.09534181  0.09534181  0.04237414       0.002
   0.10593534  0.09534181  0.04237414       0.004
   0.11652888  0.09534181  0.04237414       0.004
   0.10593534  0.10593534  0.04237414       0.002
   0.11652888  0.10593534  0.04237414       0.004
   0.11652888  0.11652888  0.04237414       0.002
   0.05296767  0.05296767  0.05296767       0.001
   0.06356120  0.05296767  0.05296767       0.002
   0.07415474  0.05296767  0.05296767       0.002
   0.08474827  0.05296767  0.05296767       0.002
   0.09534181  0.05296767  0.05296767       0.002
   0.10593534  0.05296767  0.05296767       0.002
   0.11652888  0.05296767  0.05296767       0.002
   0.06356120  0.06356120  0.05296767       0.002
   0.07415474  0.06356120  0.05296767       0.004
   0.08474827  0.06356120  0.05296767       0.004
   0.09534181  0.06356120  0.05296767       0.004
   0.10593534  0.06356120  0.05296767       0.004
   0.11652888  0.06356120  0.05296767       0.004
   0.07415474  0.07415474  0.05296767       0.002
   0.08474827  0.07415474  0.05296767       0.004
   0.09534181  0.07415474  0.05296767       0.004
   0.10593534  0.07415474  0.05296767       0.004
   0.11652888  0.07415474  0.05296767       0.004
   0.08474827  0.08474827  0.05296767       0.002
   0.09534181  0.08474827  0.05296767       0.004
   0.10593534  0.08474827  0.05296767       0.004
   0.11652888  0.08474827  0.05296767       0.004
   0.09534181  0.09534181  0.05296767       0.002
   0.10593534  0.09534181  0.05296767       0.004
   0.11652888  0.09534181  0.05296767       0.004
   0.10593534  0.10593534  0.05296767       0.002
   0.11652888  0.10593534  0.05296767       0.004
   0.11652888  0.11652888  0.05296767       0.002
   0.06356120  0.06356120  0.06356120       0.001
   0.07415474  0.06356120  0.06356120       0.002
   0.08474827  0.06356120  0.06356120       0.002
   0.09534181  0.06356120  0.06356120       0.002
   0.10593534  0.06356120  0.06356120       0.002
   0.11652888  0.06356120  0.06356120       0.002
   0.07415474  0.07415474  0.06356120       0.002
   0.08474827  0.07415474  0.06356120       0.004
   0.09534181  0.07415474  0.06356120       0.004
   0.10593534  0.07415474  0.06356120       0.004
   0.11652888  0.07415474  0.06356120       0.004
   0.08474827  0.08474827  0.06356120       0.002
   0.09534181  0.08474827  0.06356120       0.004
   0.10593534  0.08474827  0.06356120       0.004
   0.11652888  0.08474827  0.06356120       0.004
   0.09534181  0.09534181  0.06356120       0.002
   0.10593534  0.09534181  0.06356120       0.004
   0.11652888  0.09534181  0.06356120       0.004
   0.10593534  0.10593534  0.06356120       0.002
   0.11652888  0.10593534  0.06356120       0.004
   0.11652888  0.11652888  0.06356120       0.002
   0.07415474  0.07415474  0.07415474       0.001
   0.08474827  0.07415474  0.07415474       0.002
   0.09534181  0.07415474  0.07415474       0.002
   0.10593534  0.07415474  0.07415474       0.002
   0.11652888  0.07415474  0.07415474       0.002
   0.08474827  0.08474827  0.07415474       0.002
   0.09534181  0.08474827  0.07415474       0.004
   0.10593534  0.08474827  0.07415474       0.004
   0.11652888  0.08474827  0.07415474       0.004
   0.09534181  0.09534181  0.07415474       0.002
   0.10593534  0.09534181  0.07415474       0.004
   0.11652888  0.09534181  0.07415474       0.004
   0.10593534  0.10593534  0.07415474       0.002
   0.11652888  0.10593534  0.07415474       0.004
   0.11652888  0.11652888  0.07415474       0.002
   0.08474827  0.08474827  0.08474827       0.001
   0.09534181  0.08474827  0.08474827       0.002
   0.10593534  0.08474827  0.08474827       0.002
   0.11652888  0.08474827  0.08474827       0.002
   0.09534181  0.09534181  0.08474827       0.002
   0.10593534  0.09534181  0.08474827       0.004
   0.11652888  0.09534181  0.08474827       0.004
   0.10593534  0.10593534  0.08474827       0.002
   0.11652888  0.10593534  0.08474827       0.004
   0.11652888  0.11652888  0.08474827       0.002
   0.09534181  0.09534181  0.09534181       0.001
   0.10593534  0.09534181  0.09534181       0.002
   0.11652888  0.09534181  0.09534181       0.002
   0.10593534  0.10593534  0.09534181       0.002
   0.11652888  0.10593534  0.09534181       0.004
   0.11652888  0.11652888  0.09534181       0.002
   0.10593534  0.10593534  0.10593534       0.001
   0.11652888  0.10593534  0.10593534       0.002
   0.11652888  0.11652888  0.10593534       0.002
   0.11652888  0.11652888  0.11652888       0.001
 
 k-points in reciprocal lattice and weights: ScAl3                                   
   0.00000000  0.00000000  0.00000000       0.000
   0.04347826  0.00000000  0.00000000       0.000
   0.08695652  0.00000000  0.00000000       0.000
   0.13043478  0.00000000  0.00000000       0.000
   0.17391304  0.00000000  0.00000000       0.000
   0.21739130  0.00000000  0.00000000       0.000
   0.26086957  0.00000000  0.00000000       0.000
   0.30434783  0.00000000  0.00000000       0.000
   0.34782609  0.00000000  0.00000000       0.000
   0.39130435  0.00000000  0.00000000       0.000
   0.43478261  0.00000000  0.00000000       0.000
   0.47826087  0.00000000  0.00000000       0.000
   0.04347826  0.04347826  0.00000000       0.001
   0.08695652  0.04347826  0.00000000       0.002
   0.13043478  0.04347826  0.00000000       0.002
   0.17391304  0.04347826  0.00000000       0.002
   0.21739130  0.04347826  0.00000000       0.002
   0.26086957  0.04347826  0.00000000       0.002
   0.30434783  0.04347826  0.00000000       0.002
   0.34782609  0.04347826  0.00000000       0.002
   0.39130435  0.04347826  0.00000000       0.002
   0.43478261  0.04347826  0.00000000       0.002
   0.47826087  0.04347826  0.00000000       0.002
   0.08695652  0.08695652  0.00000000       0.001
   0.13043478  0.08695652  0.00000000       0.002
   0.17391304  0.08695652  0.00000000       0.002
   0.21739130  0.08695652  0.00000000       0.002
   0.26086957  0.08695652  0.00000000       0.002
   0.30434783  0.08695652  0.00000000       0.002
   0.34782609  0.08695652  0.00000000       0.002
   0.39130435  0.08695652  0.00000000       0.002
   0.43478261  0.08695652  0.00000000       0.002
   0.47826087  0.08695652  0.00000000       0.002
   0.13043478  0.13043478  0.00000000       0.001
   0.17391304  0.13043478  0.00000000       0.002
   0.21739130  0.13043478  0.00000000       0.002
   0.26086957  0.13043478  0.00000000       0.002
   0.30434783  0.13043478  0.00000000       0.002
   0.34782609  0.13043478  0.00000000       0.002
   0.39130435  0.13043478  0.00000000       0.002
   0.43478261  0.13043478  0.00000000       0.002
   0.47826087  0.13043478  0.00000000       0.002
   0.17391304  0.17391304  0.00000000       0.001
   0.21739130  0.17391304  0.00000000       0.002
   0.26086957  0.17391304  0.00000000       0.002
   0.30434783  0.17391304  0.00000000       0.002
   0.34782609  0.17391304  0.00000000       0.002
   0.39130435  0.17391304  0.00000000       0.002
   0.43478261  0.17391304  0.00000000       0.002
   0.47826087  0.17391304  0.00000000       0.002
   0.21739130  0.21739130  0.00000000       0.001
   0.26086957  0.21739130  0.00000000       0.002
   0.30434783  0.21739130  0.00000000       0.002
   0.34782609  0.21739130  0.00000000       0.002
   0.39130435  0.21739130  0.00000000       0.002
   0.43478261  0.21739130  0.00000000       0.002
   0.47826087  0.21739130  0.00000000       0.002
   0.26086957  0.26086957  0.00000000       0.001
   0.30434783  0.26086957  0.00000000       0.002
   0.34782609  0.26086957  0.00000000       0.002
   0.39130435  0.26086957  0.00000000       0.002
   0.43478261  0.26086957  0.00000000       0.002
   0.47826087  0.26086957  0.00000000       0.002
   0.30434783  0.30434783  0.00000000       0.001
   0.34782609  0.30434783  0.00000000       0.002
   0.39130435  0.30434783  0.00000000       0.002
   0.43478261  0.30434783  0.00000000       0.002
   0.47826087  0.30434783  0.00000000       0.002
   0.34782609  0.34782609  0.00000000       0.001
   0.39130435  0.34782609  0.00000000       0.002
   0.43478261  0.34782609  0.00000000       0.002
   0.47826087  0.34782609  0.00000000       0.002
   0.39130435  0.39130435  0.00000000       0.001
   0.43478261  0.39130435  0.00000000       0.002
   0.47826087  0.39130435  0.00000000       0.002
   0.43478261  0.43478261  0.00000000       0.001
   0.47826087  0.43478261  0.00000000       0.002
   0.47826087  0.47826087  0.00000000       0.001
   0.04347826  0.04347826  0.04347826       0.001
   0.08695652  0.04347826  0.04347826       0.002
   0.13043478  0.04347826  0.04347826       0.002
   0.17391304  0.04347826  0.04347826       0.002
   0.21739130  0.04347826  0.04347826       0.002
   0.26086957  0.04347826  0.04347826       0.002
   0.30434783  0.04347826  0.04347826       0.002
   0.34782609  0.04347826  0.04347826       0.002
   0.39130435  0.04347826  0.04347826       0.002
   0.43478261  0.04347826  0.04347826       0.002
   0.47826087  0.04347826  0.04347826       0.002
   0.08695652  0.08695652  0.04347826       0.002
   0.13043478  0.08695652  0.04347826       0.004
   0.17391304  0.08695652  0.04347826       0.004
   0.21739130  0.08695652  0.04347826       0.004
   0.26086957  0.08695652  0.04347826       0.004
   0.30434783  0.08695652  0.04347826       0.004
   0.34782609  0.08695652  0.04347826       0.004
   0.39130435  0.08695652  0.04347826       0.004
   0.43478261  0.08695652  0.04347826       0.004
   0.47826087  0.08695652  0.04347826       0.004
   0.13043478  0.13043478  0.04347826       0.002
   0.17391304  0.13043478  0.04347826       0.004
   0.21739130  0.13043478  0.04347826       0.004
   0.26086957  0.13043478  0.04347826       0.004
   0.30434783  0.13043478  0.04347826       0.004
   0.34782609  0.13043478  0.04347826       0.004
   0.39130435  0.13043478  0.04347826       0.004
   0.43478261  0.13043478  0.04347826       0.004
   0.47826087  0.13043478  0.04347826       0.004
   0.17391304  0.17391304  0.04347826       0.002
   0.21739130  0.17391304  0.04347826       0.004
   0.26086957  0.17391304  0.04347826       0.004
   0.30434783  0.17391304  0.04347826       0.004
   0.34782609  0.17391304  0.04347826       0.004
   0.39130435  0.17391304  0.04347826       0.004
   0.43478261  0.17391304  0.04347826       0.004
   0.47826087  0.17391304  0.04347826       0.004
   0.21739130  0.21739130  0.04347826       0.002
   0.26086957  0.21739130  0.04347826       0.004
   0.30434783  0.21739130  0.04347826       0.004
   0.34782609  0.21739130  0.04347826       0.004
   0.39130435  0.21739130  0.04347826       0.004
   0.43478261  0.21739130  0.04347826       0.004
   0.47826087  0.21739130  0.04347826       0.004
   0.26086957  0.26086957  0.04347826       0.002
   0.30434783  0.26086957  0.04347826       0.004
   0.34782609  0.26086957  0.04347826       0.004
   0.39130435  0.26086957  0.04347826       0.004
   0.43478261  0.26086957  0.04347826       0.004
   0.47826087  0.26086957  0.04347826       0.004
   0.30434783  0.30434783  0.04347826       0.002
   0.34782609  0.30434783  0.04347826       0.004
   0.39130435  0.30434783  0.04347826       0.004
   0.43478261  0.30434783  0.04347826       0.004
   0.47826087  0.30434783  0.04347826       0.004
   0.34782609  0.34782609  0.04347826       0.002
   0.39130435  0.34782609  0.04347826       0.004
   0.43478261  0.34782609  0.04347826       0.004
   0.47826087  0.34782609  0.04347826       0.004
   0.39130435  0.39130435  0.04347826       0.002
   0.43478261  0.39130435  0.04347826       0.004
   0.47826087  0.39130435  0.04347826       0.004
   0.43478261  0.43478261  0.04347826       0.002
   0.47826087  0.43478261  0.04347826       0.004
   0.47826087  0.47826087  0.04347826       0.002
   0.08695652  0.08695652  0.08695652       0.001
   0.13043478  0.08695652  0.08695652       0.002
   0.17391304  0.08695652  0.08695652       0.002
   0.21739130  0.08695652  0.08695652       0.002
   0.26086957  0.08695652  0.08695652       0.002
   0.30434783  0.08695652  0.08695652       0.002
   0.34782609  0.08695652  0.08695652       0.002
   0.39130435  0.08695652  0.08695652       0.002
   0.43478261  0.08695652  0.08695652       0.002
   0.47826087  0.08695652  0.08695652       0.002
   0.13043478  0.13043478  0.08695652       0.002
   0.17391304  0.13043478  0.08695652       0.004
   0.21739130  0.13043478  0.08695652       0.004
   0.26086957  0.13043478  0.08695652       0.004
   0.30434783  0.13043478  0.08695652       0.004
   0.34782609  0.13043478  0.08695652       0.004
   0.39130435  0.13043478  0.08695652       0.004
   0.43478261  0.13043478  0.08695652       0.004
   0.47826087  0.13043478  0.08695652       0.004
   0.17391304  0.17391304  0.08695652       0.002
   0.21739130  0.17391304  0.08695652       0.004
   0.26086957  0.17391304  0.08695652       0.004
   0.30434783  0.17391304  0.08695652       0.004
   0.34782609  0.17391304  0.08695652       0.004
   0.39130435  0.17391304  0.08695652       0.004
   0.43478261  0.17391304  0.08695652       0.004
   0.47826087  0.17391304  0.08695652       0.004
   0.21739130  0.21739130  0.08695652       0.002
   0.26086957  0.21739130  0.08695652       0.004
   0.30434783  0.21739130  0.08695652       0.004
   0.34782609  0.21739130  0.08695652       0.004
   0.39130435  0.21739130  0.08695652       0.004
   0.43478261  0.21739130  0.08695652       0.004
   0.47826087  0.21739130  0.08695652       0.004
   0.26086957  0.26086957  0.08695652       0.002
   0.30434783  0.26086957  0.08695652       0.004
   0.34782609  0.26086957  0.08695652       0.004
   0.39130435  0.26086957  0.08695652       0.004
   0.43478261  0.26086957  0.08695652       0.004
   0.47826087  0.26086957  0.08695652       0.004
   0.30434783  0.30434783  0.08695652       0.002
   0.34782609  0.30434783  0.08695652       0.004
   0.39130435  0.30434783  0.08695652       0.004
   0.43478261  0.30434783  0.08695652       0.004
   0.47826087  0.30434783  0.08695652       0.004
   0.34782609  0.34782609  0.08695652       0.002
   0.39130435  0.34782609  0.08695652       0.004
   0.43478261  0.34782609  0.08695652       0.004
   0.47826087  0.34782609  0.08695652       0.004
   0.39130435  0.39130435  0.08695652       0.002
   0.43478261  0.39130435  0.08695652       0.004
   0.47826087  0.39130435  0.08695652       0.004
   0.43478261  0.43478261  0.08695652       0.002
   0.47826087  0.43478261  0.08695652       0.004
   0.47826087  0.47826087  0.08695652       0.002
   0.13043478  0.13043478  0.13043478       0.001
   0.17391304  0.13043478  0.13043478       0.002
   0.21739130  0.13043478  0.13043478       0.002
   0.26086957  0.13043478  0.13043478       0.002
   0.30434783  0.13043478  0.13043478       0.002
   0.34782609  0.13043478  0.13043478       0.002
   0.39130435  0.13043478  0.13043478       0.002
   0.43478261  0.13043478  0.13043478       0.002
   0.47826087  0.13043478  0.13043478       0.002
   0.17391304  0.17391304  0.13043478       0.002
   0.21739130  0.17391304  0.13043478       0.004
   0.26086957  0.17391304  0.13043478       0.004
   0.30434783  0.17391304  0.13043478       0.004
   0.34782609  0.17391304  0.13043478       0.004
   0.39130435  0.17391304  0.13043478       0.004
   0.43478261  0.17391304  0.13043478       0.004
   0.47826087  0.17391304  0.13043478       0.004
   0.21739130  0.21739130  0.13043478       0.002
   0.26086957  0.21739130  0.13043478       0.004
   0.30434783  0.21739130  0.13043478       0.004
   0.34782609  0.21739130  0.13043478       0.004
   0.39130435  0.21739130  0.13043478       0.004
   0.43478261  0.21739130  0.13043478       0.004
   0.47826087  0.21739130  0.13043478       0.004
   0.26086957  0.26086957  0.13043478       0.002
   0.30434783  0.26086957  0.13043478       0.004
   0.34782609  0.26086957  0.13043478       0.004
   0.39130435  0.26086957  0.13043478       0.004
   0.43478261  0.26086957  0.13043478       0.004
   0.47826087  0.26086957  0.13043478       0.004
   0.30434783  0.30434783  0.13043478       0.002
   0.34782609  0.30434783  0.13043478       0.004
   0.39130435  0.30434783  0.13043478       0.004
   0.43478261  0.30434783  0.13043478       0.004
   0.47826087  0.30434783  0.13043478       0.004
   0.34782609  0.34782609  0.13043478       0.002
   0.39130435  0.34782609  0.13043478       0.004
   0.43478261  0.34782609  0.13043478       0.004
   0.47826087  0.34782609  0.13043478       0.004
   0.39130435  0.39130435  0.13043478       0.002
   0.43478261  0.39130435  0.13043478       0.004
   0.47826087  0.39130435  0.13043478       0.004
   0.43478261  0.43478261  0.13043478       0.002
   0.47826087  0.43478261  0.13043478       0.004
   0.47826087  0.47826087  0.13043478       0.002
   0.17391304  0.17391304  0.17391304       0.001
   0.21739130  0.17391304  0.17391304       0.002
   0.26086957  0.17391304  0.17391304       0.002
   0.30434783  0.17391304  0.17391304       0.002
   0.34782609  0.17391304  0.17391304       0.002
   0.39130435  0.17391304  0.17391304       0.002
   0.43478261  0.17391304  0.17391304       0.002
   0.47826087  0.17391304  0.17391304       0.002
   0.21739130  0.21739130  0.17391304       0.002
   0.26086957  0.21739130  0.17391304       0.004
   0.30434783  0.21739130  0.17391304       0.004
   0.34782609  0.21739130  0.17391304       0.004
   0.39130435  0.21739130  0.17391304       0.004
   0.43478261  0.21739130  0.17391304       0.004
   0.47826087  0.21739130  0.17391304       0.004
   0.26086957  0.26086957  0.17391304       0.002
   0.30434783  0.26086957  0.17391304       0.004
   0.34782609  0.26086957  0.17391304       0.004
   0.39130435  0.26086957  0.17391304       0.004
[...]
      2       2.2451      2.00000
      3       2.4475      2.00000
      4       3.8204      2.00000
      5       4.5058      2.00000
      6       5.1831      2.00000
      7       5.8310      2.00000
      8       9.2478      0.00000
      9       9.6895      0.00000
     10       9.8731      0.00000

 k-point 340 :       0.4348    0.3913    0.3043
  band No.  band energies     occupation 
      1       0.7027      2.00000
      2       2.0317      2.00000
      3       2.5043      2.00000
      4       3.9850      2.00000
      5       4.3100      2.00000
      6       5.0935      2.00000
      7       5.6817      2.00000
      8       9.1873      0.00000
      9       9.7033      0.00000
     10       9.9244      0.00000

 k-point 341 :       0.4783    0.3913    0.3043
  band No.  band energies     occupation 
      1       0.8655      2.00000
      2       1.8356      2.00000
      3       2.5803      2.00000
      4       4.0978      2.00000
      5       4.2131      2.00000
      6       4.9752      2.00000
      7       5.6392      2.00000
      8       9.1535      0.00000
      9       9.7118      0.00000
     10       9.9505      0.00000

 k-point 342 :       0.4348    0.4348    0.3043
  band No.  band energies     occupation 
      1       0.9213      2.00000
      2       2.1324      2.00000
      3       2.2663      2.00000
      4       3.9873      2.00000
      5       4.2520      2.00000
      6       5.1133      2.00000
      7       5.4358      2.00000
      8       9.1101      0.00000
      9       9.7067      0.00000
     10       9.9770      0.00000

 k-point 343 :       0.4783    0.4348    0.3043
  band No.  band energies     occupation 
      1       1.0860      2.00000
      2       1.9896      2.00000
      3       2.2980      2.00000
      4       3.8914      2.00000
      5       4.3565      2.00000
      6       5.0467      2.00000
      7       5.3421      2.00000
      8       9.0667      0.00000
      9       9.7102      0.00000
     10      10.0039      0.00000

 k-point 344 :       0.4783    0.4783    0.3043
  band No.  band energies     occupation 
      1       1.2564      2.00000
      2       2.0759      2.00000
      3       2.1011      2.00000
      4       3.7597      2.00000
      5       4.5097      2.00000
      6       5.0784      2.00000
      7       5.1338      2.00000
      8       9.0182      0.00000
      9       9.7113      0.00000
     10      10.0317      0.00000

 k-point 345 :       0.3478    0.3478    0.3478
  band No.  band energies     occupation 
      1       0.2437      2.00000
      2       2.5380      2.00000
      3       2.5380      2.00000
      4       3.4053      2.00000
      5       5.0149      2.00000
      6       5.0149      2.00000
      7       5.9796      2.00000
      8       9.3457      0.00000
      9       9.6990      0.00000
     10       9.6990      0.00000

 k-point 346 :       0.3913    0.3478    0.3478
  band No.  band energies     occupation 
      1       0.4675      2.00000
      2       2.2970      2.00000
      3       2.6592      2.00000
      4       3.5099      2.00000
      5       4.7800      2.00000
      6       4.9649      2.00000
      7       5.7401      2.00000
      8       9.2649      0.00000
      9       9.7278      0.00000
     10       9.7409      0.00000

 k-point 347 :       0.4348    0.3478    0.3478
  band No.  band energies     occupation 
      1       0.6879      2.00000
      2       2.0212      2.00000
      3       2.7608      2.00000
      4       3.7044      2.00000
      5       4.6013      2.00000
      6       4.7978      2.00000
      7       5.6401      2.00000
      8       9.1912      0.00000
      9       9.7585      0.00000
     10       9.7691      0.00000

 k-point 348 :       0.4783    0.3478    0.3478
  band No.  band energies     occupation 
      1       0.8516      2.00000
      2       1.8222      2.00000
      3       2.8209      2.00000
      4       3.8784      2.00000
      5       4.5022      2.00000
      6       4.6192      2.00000
      7       5.6185      2.00000
      8       9.1496      0.00000
      9       9.7755      0.00000
     10       9.7833      0.00000

 k-point 349 :       0.3913    0.3913    0.3478
  band No.  band energies     occupation 
      1       0.6897      2.00000
      2       2.3659      2.00000
      3       2.5340      2.00000
      4       3.5476      2.00000
      5       4.6150      2.00000
      6       4.9135      2.00000
      7       5.4508      2.00000
      8       9.1593      0.00000
      9       9.7251      0.00000
     10       9.7791      0.00000

 k-point 350 :       0.4348    0.3913    0.3478
  band No.  band energies     occupation 
      1       0.9097      2.00000
      2       2.1704      2.00000
      3       2.5891      2.00000
      4       3.7022      2.00000
      5       4.4223      2.00000
      6       4.8135      2.00000
      7       5.3155      2.00000
      8       9.0613      0.00000
      9       9.7335      0.00000
     10       9.8090      0.00000

 k-point 351 :       0.4783    0.3913    0.3478
  band No.  band energies     occupation 
      1       1.0751      2.00000
      2       1.9831      2.00000
      3       2.6506      2.00000
      4       3.8583      2.00000
      5       4.2860      2.00000
      6       4.6813      2.00000
      7       5.2944      2.00000
      8       9.0052      0.00000
      9       9.7402      0.00000
     10       9.8244      0.00000

 k-point 352 :       0.4348    0.4348    0.3478
  band No.  band energies     occupation 
      1       1.1318      2.00000
      2       2.2505      2.00000
      3       2.3966      2.00000
      4       3.8138      2.00000
      5       4.2209      2.00000
      6       4.8460      2.00000
      7       5.0785      2.00000
      8       8.9449      0.00000
      9       9.7280      0.00000
     10       9.8395      0.00000

 k-point 353 :       0.4783    0.4348    0.3478
  band No.  band energies     occupation 
      1       1.3025      2.00000
      2       2.1198      2.00000
      3       2.4129      2.00000
      4       3.9431      2.00000
      5       4.0816      2.00000
      6       4.7700      2.00000
      7       5.0193      2.00000
      8       8.8782      0.00000
      9       9.7283      0.00000
     10       9.8551      0.00000

 k-point 354 :       0.4783    0.4783    0.3478
  band No.  band energies     occupation 
      1       1.4843      2.00000
      2       2.1925      2.00000
      3       2.2239      2.00000
      4       3.9417      2.00000
      5       4.0627      2.00000
      6       4.8122      2.00000
      7       4.8453      2.00000
      8       8.8054      0.00000
      9       9.7254      0.00000
     10       9.8707      0.00000

 k-point 355 :       0.3913    0.3913    0.3913
  band No.  band energies     occupation 
      1       0.9120      2.00000
      2       2.4824      2.00000
      3       2.4824      2.00000
      4       3.4542      2.00000
      5       4.6823      2.00000
      6       4.6823      2.00000
      7       5.1353      2.00000
      8       9.0196      0.00000
      9       9.7519      0.00000
     10       9.7519      0.00000

 k-point 356 :       0.4348    0.3913    0.3913
  band No.  band energies     occupation 
      1       1.1341      2.00000
      2       2.2991      2.00000
      3       2.5790      2.00000
      4       3.5383      2.00000
      5       4.5078      2.00000
      6       4.5992      2.00000
      7       4.9928      2.00000
      8       8.8923      0.00000
      9       9.7507      0.00000
     10       9.7699      0.00000

 k-point 357 :       0.4783    0.3913    0.3913
  band No.  band energies     occupation 
      1       1.3039      2.00000
      2       2.1255      2.00000
      3       2.6356      2.00000
      4       3.6608      2.00000
      5       4.4119      2.00000
      6       4.4365      2.00000
      7       4.9896      2.00000
      8       8.8193      0.00000
      9       9.7538      0.00000
     10       9.7789      0.00000

 k-point 358 :       0.4348    0.4348    0.3913
  band No.  band energies     occupation 
      1       1.3608      2.00000
      2       2.3636      2.00000
      3       2.4807      2.00000
      4       3.5419      2.00000
      5       4.3519      2.00000
      6       4.6175      2.00000
      7       4.7637      2.00000
      8       8.7435      0.00000
      9       9.7447      0.00000
     10       9.7787      0.00000

 k-point 359 :       0.4783    0.4348    0.3913
  band No.  band energies     occupation 
      1       1.5399      2.00000
      2       2.2440      2.00000
      3       2.5006      2.00000
      4       3.6126      2.00000
      5       4.2270      2.00000
      6       4.5313      2.00000
      7       4.7442      2.00000
      8       8.6587      0.00000
      9       9.7423      0.00000
     10       9.7866      0.00000

 k-point 360 :       0.4783    0.4783    0.3913
  band No.  band energies     occupation 
      1       1.7370      2.00000
      2       2.3041      2.00000
      3       2.3399      2.00000
      4       3.6398      2.00000
      5       4.1143      2.00000
      6       4.5853      2.00000
      7       4.6022      2.00000
      8       8.5675      0.00000
      9       9.7369      0.00000
     10       9.7942      0.00000

 k-point 361 :       0.4348    0.4348    0.4348
  band No.  band energies     occupation 
      1       1.5951      2.00000
      2       2.4569      2.00000
      3       2.4569      2.00000
      4       3.3955      2.00000
      5       4.4460      2.00000
      6       4.4460      2.00000
      7       4.5256      2.00000
      8       8.5714      0.00000
      9       9.7561      0.00000
     10       9.7561      0.00000

 k-point 362 :       0.4783    0.4348    0.4348
  band No.  band energies     occupation 
      1       1.7877      2.00000
      2       2.3459      2.00000
      3       2.5112      2.00000
      4       3.3710      2.00000
      5       4.3459      2.00000
      6       4.3522      2.00000
      7       4.5348      2.00000
      8       8.4737      0.00000
      9       9.7490      0.00000
     10       9.7619      0.00000

 k-point 363 :       0.4783    0.4783    0.4348
  band No.  band energies     occupation 
      1       2.0053      2.00000
      2       2.3957      2.00000
      3       2.4285      2.00000
      4       3.2673      2.00000
      5       4.2472      2.00000
      6       4.4153      2.00000
      7       4.4202      2.00000
      8       8.3691      0.00000
      9       9.7450      0.00000
     10       9.7613      0.00000

 k-point 364 :       0.4783    0.4783    0.4783
  band No.  band energies     occupation 
      1       2.2524      2.00000
      2       2.4488      2.00000
      3       2.4488      2.00000
      4       3.0003      2.00000
      5       4.3195      2.00000
      6       4.3226      2.00000
      7       4.3226      2.00000
      8       8.2576      0.00000
      9       9.7492      0.00000
     10       9.7492      0.00000


--------------------------------------------------------------------------------------------------------


 soft charge-density along one line, spin component           1
         0         1         2         3         4         5         6         7         8         9
 total charge-density along one line
 
 pseudopotential strength for first ion, spin component:           1
  0.532   0.000  -0.000  -0.000  -0.000  -0.924  -0.000   0.000
  0.000   0.532   0.000   0.000   0.000  -0.000  -0.924  -0.000
 -0.000   0.000   0.540   0.000  -0.000   0.000  -0.000  -0.926
 -0.000   0.000   0.000   0.532   0.000   0.000  -0.000  -0.000
 -0.000   0.000  -0.000   0.000   0.540   0.000  -0.000   0.000
 -0.924  -0.000   0.000   0.000   0.000   0.471   0.000  -0.000
 -0.000  -0.924  -0.000  -0.000  -0.000   0.000   0.471   0.000
  0.000  -0.000  -0.926  -0.000   0.000  -0.000   0.000   0.471
  0.000  -0.000  -0.000  -0.924  -0.000  -0.000   0.000   0.000
  0.000  -0.000   0.000  -0.000  -0.926  -0.000   0.000  -0.000
 -0.000  -0.000  -0.000  -0.000  -0.000   0.000   0.000   0.000
 -0.000  -0.000  -0.000  -0.000  -0.000   0.000   0.000   0.000
 -0.000   0.000  -0.000  -0.000  -0.000   0.000  -0.000  -0.000
 -0.000  -0.000   0.000  -0.000   0.000   0.000   0.000  -0.000
 -0.000  -0.000   0.000   0.000   0.000   0.000   0.000  -0.000
 total augmentation occupancy for first ion, spin component:           1
  0.491  -0.047  -0.126  -0.041  -0.007   0.620  -0.038  -0.089  -0.065  -0.001   0.067   0.004  -0.000   0.000  -0.000
 -0.047   0.637  -0.019  -0.084  -0.096  -0.038   0.561  -0.016  -0.028  -0.055   0.227  -0.001   0.000  -0.000   0.000
 -0.126  -0.019   0.564   0.034   0.137  -0.088  -0.016   0.630   0.016   0.140   0.240   0.021   0.000   0.000  -0.000
 -0.041  -0.084   0.034   0.730   0.091  -0.065  -0.028   0.016   0.724   0.057   0.078   0.002   0.000  -0.000   0.000
 -0.007  -0.096   0.137   0.091   0.247  -0.001  -0.054   0.140   0.056   0.275  -0.066  -0.010   0.000  -0.000  -0.000
  0.620  -0.038  -0.088  -0.065  -0.001   0.841  -0.031  -0.037  -0.085   0.006   0.096   0.004  -0.000  -0.000  -0.000
 -0.038   0.561  -0.016  -0.028  -0.054  -0.031   0.538  -0.018   0.013  -0.012   0.182  -0.005   0.000  -0.000   0.000
 -0.089  -0.016   0.630   0.016   0.140  -0.037  -0.018   0.731  -0.004   0.135   0.374   0.034  -0.000   0.000  -0.000
 -0.065  -0.028   0.016   0.724   0.056  -0.085   0.013  -0.004   0.767   0.020   0.090   0.000   0.000  -0.000   0.000
 -0.001  -0.055   0.140   0.057   0.275   0.006  -0.012   0.135   0.020   0.342  -0.129  -0.019   0.000  -0.000  -0.000
  0.067   0.227   0.240   0.078  -0.066   0.096   0.182   0.374   0.090  -0.129   1.106   0.109   0.000  -0.000   0.000
  0.004  -0.001   0.021   0.002  -0.010   0.004  -0.005   0.034   0.000  -0.019   0.109   0.014   0.000   0.000  -0.000
 -0.000   0.000   0.000   0.000   0.000  -0.000   0.000  -0.000   0.000   0.000   0.000   0.000   0.315  -0.057  -0.028
  0.000  -0.000   0.000  -0.000  -0.000  -0.000  -0.000   0.000  -0.000  -0.000  -0.000   0.000  -0.057   0.183  -0.034
 -0.000   0.000  -0.000   0.000  -0.000  -0.000   0.000  -0.000   0.000  -0.000   0.000  -0.000  -0.028  -0.034   0.366


------------------------ aborting loop because EDIFF is reached ----------------------------------------




--------------------------------------------------------------------------------------------------------


    CHARGE:  VPU time    0.41: CPU time    0.41
    FORLOC:  VPU time    0.00: CPU time    0.00
    FORNL :  VPU time    0.76: CPU time    0.76
    STRESS:  VPU time    2.88: CPU time    2.88
    FORCOR:  VPU time    0.03: CPU time    0.03
    FORHAR:  VPU time    0.00: CPU time    0.00
    MIXING:  VPU time    0.00: CPU time    0.00


--------------------------------------------------------------------------------------------------------



  FREE ENERGIE OF THE ION-ELECTRON SYSTEM (eV)
  ---------------------------------------------------
  free  energy   TOTEN  =       -19.126012 eV

  energy  without entropy=      -19.126012  energy(sigma->0) =      -19.126012
 

  FORCE on cell =-STRESS in cart. coord.  units (eV/reduce length):
  Direction    X        Y        Z        XY       YZ       ZX
  --------------------------------------------------------------------------------------
  Alpha Z      3.76      3.76      3.76
  Ewald      -96.52    -96.52    -96.52     -0.00     -0.00     -0.00
  Hartree      0.29      0.29      0.29     -0.00     -0.00     -0.00
  E(xc)      -38.09    -38.09    -38.09     -0.00     -0.00     -0.00
  Local        1.51      1.51      1.51      0.00     -0.00      0.00
  n-local     61.43     62.07     66.02      0.73      1.75      0.63
  augment      4.50      4.50      4.50      0.00      0.00      0.00
  Kinetic     57.92     60.53     65.63     -0.24     -3.03     -1.10
  -------------------------------------------------------------------------------------
  Total       -0.00     -0.00     -0.00     -0.00      0.00     -0.00
  in kB       -0.07     -0.07     -0.07     -0.00      0.00     -0.00
  external pressure =       -0.07 kB  Pullay stress =        0.00 kB


 VOLUME and BASIS-vectors are now :
 -----------------------------------------------------------------------------
  energy-cutoff  :      300.55
  volume of cell :       69.13
      direct lattice vectors                 reciprocal lattice vectors
     4.104226244  0.000000000  0.000000000     0.243651285  0.000000000  0.000000000
     0.000000000  4.104226244  0.000000000     0.000000000  0.243651285  0.000000000
     0.000000000  0.000000000  4.104226244     0.000000000  0.000000000  0.243651285

  length of vectors
     4.104226244  4.104226244  4.104226244     0.243651285  0.243651285  0.243651285


 FORCES acting on ions
    electron-ion (+dipol)            ewald-force                    non-local-force                 convergence-correction
 -----------------------------------------------------------------------------------------------
   -.766E-14 -.136E-14 0.152E-14   0.384E-15 -.368E-15 -.364E-15   0.000E+00 0.000E+00 0.000E+00   -.503E-15 0.760E-17 0.116E-16
   -.622E-14 -.262E-14 -.298E-14   0.377E-15 -.142E-15 0.384E-15   0.000E+00 0.000E+00 0.000E+00   -.321E-15 0.362E-17 -.822E-17
   -.296E-14 0.120E-14 -.371E-13   -.323E-15 0.651E-16 0.370E-15   0.000E+00 0.000E+00 0.000E+00   0.379E-15 0.608E-18 -.243E-16
   -.408E-14 -.238E-14 0.681E-14   -.329E-15 0.291E-15 -.182E-15   0.000E+00 0.000E+00 0.000E+00   0.332E-15 -.921E-17 0.190E-16
 -----------------------------------------------------------------------------------------------
   -.209E-13 -.517E-14 -.317E-13   0.109E-15 -.154E-15 0.208E-15   0.000E+00 0.000E+00 0.000E+00   -.113E-15 0.262E-17 -.194E-17
 
 
 POSITION                                       TOTAL-FORCE (eV/Angst)
 -----------------------------------------------------------------------------------
      0.00000      0.00000      0.00000         0.000000      0.000000      0.000000
      0.00000      2.05211      2.05211         0.000000      0.000000      0.000000
      2.05211      0.00000      2.05211         0.000000      0.000000      0.000000
      2.05211      2.05211      0.00000         0.000000      0.000000      0.000000
 -----------------------------------------------------------------------------------
    total drift:                               -0.000000     -0.000000     -0.000000


--------------------------------------------------------------------------------------------------------



 mean value of Nose-termostat <S>:     1.000 mean value of <T> :     0.000
 mean temperature <T/S>/<1/S>  :     0.000

     LOOP+:  VPU time   95.26: CPU time   95.31

volume of typ            1:    32.6 %

volume of typ            2:    67.4 %
 


 total charge     
 
# of ion     s       p       d       tot
----------------------------------------
  1        0.418   0.629   1.896   2.942
  2        0.996   1.191   0.247   2.434
  3        0.979   1.328   0.178   2.485
  4        0.932   1.227   0.205   2.365
------------------------------------------------
tot         3.32    4.38    2.53   10.23
 
 BZINTS: Fermi energy:  7.226373; 12.000000 electrons
         Band energy:  41.144856;  BLOECHL correction: -0.013291
  
  
 General timing and accounting informations for this job:
 ========================================================
  
                  Total CPU time used (sec):       98.877
                            User time (sec):       98.617
                          System time (sec):        0.260
                         Elapsed time (sec):       98.966
  
                   Maximum memory used (kb):      190948.
                   Average memory used (kb):           0.
  
                          Minor page faults:        42313
                          Major page faults:            0
                 Voluntary context switches:          596
