  16   16    1    1
  3.4547707e+02   7.5457278e-10   8.4126291e-10   5.4423485e-10   5.0000000e-16
            1.000000e-04
  CAR
 DOS and projected DOS file by LOBSTER. Energy is shifted such that the Fermi level lies at 0 eV. 
     11.24012241      -3.81004482   301       6.22340000       1.00000000
-10.03344   0.00000   0.00580
 -9.98328   0.43736   0.02774
 -9.93311   0.63001   0.05935
 -9.88294   0.75881   0.09741
 -9.83278   0.88612   0.14187
 -9.78261   0.98825   0.19145
 -9.73244   1.07834   0.24554
 -9.68227   1.17006   0.30424
 -9.63211   1.25535   0.36722
 -9.58194   1.32788   0.43384
 -9.53177   1.40657   0.50440
 -9.48161   1.53723   0.58152
 -9.43144   1.54615   0.65908
 -9.38127   1.60481   0.73959
 -9.33110   1.70263   0.82501
 -9.28094   1.71909   0.91125
 -9.23077   1.72088   0.99758
 -9.18060   1.81659   1.08872
 -9.13043   1.90685   1.18438
 -9.08027   1.95660   1.28254
 -9.03010   2.01409   1.38358
 -8.97993   2.07192   1.48752
 -8.92977   2.12294   1.59402
 -8.87960   2.19066   1.70392
 -8.82943   2.31771   1.82019
 -8.77926   2.43777   1.94249
 -8.72910   2.47697   2.06675
 -8.67893   2.46131   2.19023
 -8.62876   2.38888   2.31007
 -8.57860   2.36913   2.42893
 -8.52843   2.39960   2.54931
 -8.47826   2.48456   2.67395
 -8.42809   2.66552   2.80767
 -8.37793   2.79219   2.94775
 -8.32776   2.82363   3.08940
 -8.27759   3.02314   3.24106
 -8.22742   3.21484   3.40234
 -8.17726   3.08800   3.55726
 -8.12709   3.12962   3.71426
 -8.07692   3.26310   3.87797
 -8.02676   3.07452   4.03221
 -7.97659   2.94785   4.18009
 -7.92642   2.85685   4.32341
 -7.87625   2.61532   4.45461
 -7.82609   2.31145   4.57057
 -7.77592   2.31957   4.68694
 -7.72575   2.38692   4.80669
 -7.67559   2.68503   4.94139
 -7.62542   3.02783   5.09328
 -7.57525   3.64643   5.27621
 -7.52508   3.83677   5.46869
 -7.47492   3.60694   5.64964
 -7.42475   3.57175   5.82883
 -7.37458   3.42255   6.00053
 -7.32441   3.38306   6.17025
 -7.27425   3.36400   6.33901
 -7.22408   3.30183   6.50465
 -7.17391   3.32435   6.67143
 -7.12375   3.36455   6.84022
 -7.07358   3.59455   7.02055
 -7.02341   3.65985   7.20415
 -6.97324   3.64245   7.38688
 -6.92308   3.63763   7.56937
 -6.87291   3.88685   7.76436
 -6.82274   4.09805   7.96995
 -6.77258   4.02636   8.17194
 -6.72241   3.94487   8.36985
 -6.67224   4.08842   8.57495
 -6.62207   4.30583   8.79096
 -6.57191   4.37711   9.01055
 -6.52174   4.07020   9.21474
 -6.47157   4.12540   9.42170
 -6.42140   4.50508   9.64771
 -6.37124   4.82563   9.88980
 -6.32107   4.92597  10.13692
 -6.27090   4.70879  10.37315
 -6.22074   5.02006  10.62499
 -6.17057   5.18170  10.88494
 -6.12040   5.29408  11.15053
 -6.07023   5.33981  11.41841
 -6.02007   5.62894  11.70080
 -5.96990   5.61497  11.98249
 -5.91973   5.55167  12.26100
 -5.86957   5.70547  12.54723
 -5.81940   5.79313  12.83785
 -5.76923   6.04011  13.14087
 -5.71906   5.80875  13.43228
 -5.66890   5.61566  13.71400
 -5.61873   5.82998  14.00647
 -5.56856   6.08158  14.31157
 -5.51839   5.96304  14.61072
 -5.46823   5.62453  14.89289
 -5.41806   6.03919  15.19585
 -5.36789   6.37161  15.51550
 -5.31773   6.93134  15.86323
 -5.26756   6.62634  16.19565
 -5.21739   6.18731  16.50605
 -5.16722   6.00022  16.80707
 -5.11706   6.69252  17.14281
 -5.06689   6.77914  17.48290
 -5.01672   6.92413  17.83027
 -4.96656   7.20398  18.19167
 -4.91639   7.42824  18.56432
 -4.86622   7.86055  18.95867
 -4.81605   7.55070  19.33746
 -4.76589   7.46594  19.71201
 -4.71572   7.63405  20.09499
 -4.66555   7.68946  20.48075
 -4.61538   7.90677  20.87741
 -4.56522   7.71134  21.26426
 -4.51505   7.78650  21.65489
 -4.46488   7.57335  22.03483
 -4.41472   7.53743  22.41296
 -4.36455   6.73974  22.75107
 -4.31438   7.05435  23.10497
 -4.26421   7.05975  23.45914
 -4.21405   6.44430  23.78243
 -4.16388   5.97795  24.08233
 -4.11371   4.79116  24.32269
 -4.06355   3.33618  24.49005
 -4.01338   3.58359  24.66983
 -3.96321   4.93061  24.91719
 -3.91304   5.29097  25.18262
 -3.86288   5.46076  25.45657
 -3.81271   5.50078  25.73253
 -3.76254   5.28426  25.99763
 -3.71237   4.58363  26.22757
 -3.66221   5.08201  26.48252
 -3.61204   7.65939  26.86677
 -3.56187   9.53530  27.34513
 -3.51171  10.91096  27.89251
 -3.46154  10.15241  28.40182
 -3.41137   9.20607  28.86367
 -3.36120  15.58737  29.64564
 -3.31104  15.33198  30.41481
 -3.26087  13.64772  31.09947
 -3.21070  11.95388  31.69917
 -3.16054  13.34572  32.36868
 -3.11037  15.66465  33.15454
 -3.06020  18.34590  34.07490
 -3.01003  19.80897  35.06866
 -2.95987  15.68470  35.85552
 -2.90970   8.99337  36.30669
 -2.85953  13.84240  37.00113
 -2.80936  18.06918  37.90761
 -2.75920  18.94843  38.85820
 -2.70903  20.47702  39.88547
 -2.65886  24.52828  41.11599
 -2.60870  25.81264  42.41094
 -2.55853  25.24368  43.67734
 -2.50836  21.03064  44.73239
 -2.45819  19.80790  45.72610
 -2.40803  20.72366  46.76575
 -2.35786  21.94514  47.86667
 -2.30769  17.12648  48.72586
 -2.25753  17.25639  49.59157
 -2.20736  18.67980  50.52868
 -2.15719  22.04823  51.63478
 -2.10702  22.43121  52.76009
 -2.05686  21.47753  53.83756
 -2.00669  19.86372  54.83407
 -1.95652  19.05253  55.78988
 -1.90635  20.04932  56.79570
 -1.85619  12.21043  57.40826
 -1.80602   9.44290  57.88198
 -1.75585   9.90399  58.37884
 -1.70569   8.88100  58.82437
 -1.65552   9.08267  59.28003
 -1.60535   7.77614  59.67013
 -1.55518   7.96339  60.06964
 -1.50502  10.10339  60.57649
 -1.45485  11.88849  61.17291
 -1.40468  10.30534  61.68990
 -1.35452   9.17342  62.15010
 -1.30435   8.30940  62.56696
 -1.25418   8.24907  62.98080
 -1.20401   7.81005  63.37260
 -1.15385   8.53593  63.80083
 -1.10368  12.07797  64.40675
 -1.05351  11.45837  64.98158
 -1.00334   9.81996  65.47422
 -0.95318   7.97303  65.87420
 -0.90301   6.64938  66.20779
 -0.85284   6.32191  66.52494
 -0.80268   5.61085  66.80642
 -0.75251   5.90925  67.10287
 -0.70234   5.40336  67.37394
 -0.65217   4.24552  67.58693
 -0.60201   3.41731  67.75836
 -0.55184   2.94784  67.90625
 -0.50167   3.05785  68.05965
 -0.45151   6.41833  68.38164
 -0.40134   9.70590  68.86856
 -0.35117  10.48281  69.39445
 -0.30100   9.37582  69.86481
 -0.25084   7.00755  70.21636
 -0.20067   7.76961  70.60614
 -0.15050   7.16306  70.96549
 -0.10033   6.64591  71.29890
 -0.05017   6.78162  71.63911
 -0.00000   7.11937  71.99627
  0.05017   6.52726  72.32373
  0.10033   5.96041  72.62275
  0.15050   5.51860  72.89960
  0.20067   5.49733  73.17538
  0.25084   5.73869  73.46328
  0.30100   6.06876  73.76773
  0.35117   5.86210  74.06182
  0.40134   5.62976  74.34425
  0.45151   6.65627  74.67817
  0.50167   6.45741  75.00212
  0.55184   6.05996  75.30613
  0.60201   6.61998  75.63824
  0.65217   5.79075  75.92875
  0.70234   5.06942  76.18307
  0.75251   4.90885  76.42933
  0.80268   4.75207  76.66773
  0.85284   4.73065  76.90505
  0.90301   4.50139  77.13087
  0.95318   4.79029  77.37119
  1.00334   4.91397  77.61771
  1.05351   5.47102  77.89217
  1.10368   5.43439  78.16480
  1.15385   4.97861  78.41457
  1.20401   4.74045  78.65238
  1.25418   4.64139  78.88523
  1.30435   5.30910  79.15157
  1.35452   6.80589  79.49300
  1.40468   8.27967  79.90837
  1.45485   9.57907  80.38892
  1.50502  10.95696  80.93861
  1.55518   9.66659  81.42355
  1.60535   9.92944  81.92168
  1.65552   9.36969  82.39173
  1.70569   9.51365  82.86901
  1.75585   9.45781  83.34348
  1.80602   9.09019  83.79951
  1.85619   8.77177  84.23957
  1.90635   8.33235  84.65758
  1.95652   8.01060  85.05945
  2.00669   7.64757  85.44310
  2.05686   7.06234  85.79740
  2.10702   7.01952  86.14955
  2.15719   7.56974  86.52930
  2.20736   7.83897  86.92256
  2.25753   7.20245  87.28389
  2.30769   7.36882  87.65356
  2.35786   7.72389  88.04105
  2.40803   7.11241  88.39786
  2.45819   7.02680  88.75037
  2.50836   7.07848  89.10548
  2.55853   7.20992  89.46718
  2.60870   7.31100  89.83396
  2.65886   7.17278  90.19379
  2.70903   7.27847  90.55894
  2.75920   7.59160  90.93979
  2.80936   7.74244  91.32820
  2.85953   8.13840  91.73648
  2.90970   8.06414  92.14104
  2.95987   7.94369  92.53955
  3.01003   8.24325  92.95309
  3.06020   8.39631  93.37431
  3.11037   8.22984  93.78718
  3.16054   8.15663  94.19638
  3.21070   8.06962  94.60121
  3.26087   8.03950  95.00453
  3.31104   8.03456  95.40760
  3.36120   8.29842  95.82391
  3.41137   8.48901  96.24978
  3.46154   8.44943  96.67366
  3.51171   8.55989  97.10309
  3.56187   8.53428  97.53123
  3.61204   8.18628  97.94191
  3.66221   7.94893  98.34069
  3.71237   8.00389  98.74222
  3.76254   8.12129  99.14964
  3.81271   8.32388  99.56723
  3.86288   8.41020  99.98914
  3.91304   8.60334 100.42075
  3.96321   8.35060 100.83968
  4.01338   8.36859 101.25951
  4.06355   8.58210 101.69005
  4.11371   8.81131 102.13208
  4.16388   8.42935 102.55496
  4.21405   8.84294 102.99859
  4.26421   8.41680 103.42083
  4.31438   8.23784 103.83410
  4.36455   8.55016 104.26304
  4.41472   8.11455 104.67013
  4.46488   7.59286 105.05104
  4.51505   8.12799 105.45880
  4.56522   8.51739 105.88609
  4.61538   8.56138 106.31559
  4.66555   8.54038 106.74404
  4.71572   8.37501 107.16419
  4.76589   8.01019 107.56604
  4.81605   7.86373 107.96054
  4.86622   7.83976 108.35384
  4.91639   7.25298 108.71770
  4.96656   7.31332 109.08459
  5.01672   7.23082 109.44734
      5.01672241     -10.03344482   301       6.22340000       1.00000000; Z= 49; 5s 5p_y 5p_z 5p_x 
-10.03344   0.00000   0.00000   0.00000   0.00000
 -9.98328   0.01417   0.00028   0.00079   0.00025
 -9.93311   0.02046   0.00073   0.00177   0.00058
 -9.88294   0.02479   0.00128   0.00285   0.00095
 -9.83278   0.02916   0.00187   0.00402   0.00136
 -9.78261   0.03281   0.00251   0.00522   0.00179
 -9.73244   0.03614   0.00315   0.00642   0.00224
 -9.68227   0.03957   0.00382   0.00768   0.00271
 -9.63211   0.04285   0.00450   0.00898   0.00321
 -9.58194   0.04580   0.00520   0.01021   0.00372
 -9.53177   0.04896   0.00598   0.01149   0.00424
 -9.48161   0.05391   0.00749   0.01280   0.00477
 -9.43144   0.05487   0.00718   0.01419   0.00532
 -9.38127   0.05797   0.00686   0.01549   0.00666
 -9.33110   0.06175   0.00861   0.01673   0.00693
 -9.28094   0.06249   0.00960   0.01798   0.00663
 -9.23077   0.06271   0.01034   0.01918   0.00629
 -9.18060   0.06692   0.01109   0.02039   0.00748
 -9.13043   0.07097   0.01193   0.02162   0.00858
 -9.08027   0.07343   0.01264   0.02276   0.00922
 -9.03010   0.07613   0.01349   0.02391   0.00983
 -8.97993   0.07885   0.01436   0.02504   0.01042
 -8.92977   0.08130   0.01521   0.02620   0.01097
 -8.87960   0.08445   0.01628   0.02741   0.01171
 -8.82943   0.08920   0.01724   0.03099   0.01240
 -8.77926   0.09411   0.01857   0.03364   0.01318
 -8.72910   0.09667   0.02000   0.03316   0.01391
 -8.67893   0.09687   0.02065   0.03255   0.01422
 -8.62876   0.09449   0.02035   0.03204   0.01420
 -8.57860   0.09440   0.02074   0.03142   0.01467
 -8.52843   0.09650   0.02179   0.03095   0.01567
 -8.47826   0.10036   0.02290   0.03227   0.01654
 -8.42809   0.10761   0.02411   0.03672   0.01742
 -8.37793   0.11351   0.02589   0.03832   0.01843
 -8.32776   0.11542   0.02699   0.03881   0.01843
 -8.27759   0.12386   0.02938   0.04298   0.01897
 -8.22742   0.13189   0.03163   0.04690   0.01972
 -8.17726   0.12785   0.03162   0.04261   0.02014
 -8.12709   0.13102   0.03223   0.04156   0.02118
 -8.07692   0.13667   0.03258   0.04321   0.02287
 -8.02676   0.12923   0.03294   0.03856   0.02290
 -7.97659   0.12458   0.03296   0.03509   0.02311
 -7.92642   0.12095   0.03325   0.03199   0.02379
 -7.87625   0.10947   0.03304   0.02686   0.02350
 -7.82609   0.09672   0.03271   0.01971   0.02296
 -7.77592   0.09702   0.03412   0.02072   0.02313
 -7.72575   0.09961   0.03480   0.02435   0.02378
 -7.67559   0.11012   0.03701   0.03404   0.02565
 -7.62542   0.12498   0.03962   0.04448   0.02727
 -7.57525   0.14780   0.04264   0.06266   0.03128
 -7.52508   0.15358   0.04337   0.06796   0.03339
 -7.47492   0.14644   0.04144   0.06057   0.03292
 -7.42475   0.14664   0.04172   0.05837   0.03296
 -7.37458   0.14249   0.04007   0.05411   0.03246
 -7.32441   0.14200   0.03924   0.05273   0.03301
 -7.27425   0.14296   0.03873   0.05239   0.03351
 -7.22408   0.14349   0.03825   0.05001   0.03315
 -7.17391   0.14438   0.03809   0.05145   0.03326
 -7.12375   0.14629   0.03982   0.05165   0.03330
 -7.07358   0.15839   0.04282   0.05679   0.03440
 -7.02341   0.16253   0.04328   0.05885   0.03582
 -6.97324   0.16113   0.04234   0.05851   0.03751
 -6.92308   0.16019   0.04110   0.05898   0.03863
 -6.87291   0.17138   0.04269   0.06276   0.04317
 -6.82274   0.17809   0.04472   0.06486   0.04864
 -6.77258   0.17336   0.04393   0.06223   0.04965
 -6.72241   0.16957   0.04466   0.05974   0.04778
 -6.67224   0.17687   0.04850   0.06106   0.04695
 -6.62207   0.18681   0.05356   0.06692   0.04372
 -6.57191   0.18775   0.05629   0.07073   0.04026
 -6.52174   0.17363   0.05243   0.06599   0.03683
 -6.47157   0.17499   0.05211   0.06638   0.03828
 -6.42140   0.19033   0.05483   0.07110   0.04401
 -6.37124   0.21011   0.05638   0.07257   0.04997
 -6.32107   0.21545   0.05915   0.07312   0.04897
 -6.27090   0.20415   0.05721   0.07054   0.04500
 -6.22074   0.21672   0.05821   0.07358   0.04981
 -6.17057   0.22630   0.05886   0.07269   0.05238
 -6.12040   0.23329   0.06014   0.07102   0.05293
 -6.07023   0.23591   0.06229   0.07028   0.05164
 -6.02007   0.24692   0.06663   0.07257   0.05424
 -5.96990   0.24335   0.06855   0.07396   0.05051
 -5.91973   0.23904   0.06679   0.07422   0.04837
 -5.86957   0.24402   0.06627   0.07355   0.05142
 -5.81940   0.24197   0.06902   0.07369   0.04998
 -5.76923   0.24622   0.07512   0.07614   0.04920
 -5.71906   0.23671   0.07175   0.07233   0.04701
 -5.66890   0.22778   0.06721   0.06876   0.04600
 -5.61873   0.23008   0.07014   0.07174   0.04634
 -5.56856   0.22937   0.06960   0.07670   0.05046
 -5.51839   0.21671   0.06548   0.07624   0.04953
 -5.46823   0.19757   0.05958   0.07424   0.04535
 -5.41806   0.20691   0.06183   0.07964   0.05084
 -5.36789   0.21307   0.06393   0.08245   0.05384
 -5.31773   0.22784   0.06927   0.08654   0.05805
 -5.26756   0.22112   0.06488   0.08391   0.05521
 -5.21739   0.20698   0.06225   0.07930   0.04937
 -5.16722   0.19968   0.06048   0.07613   0.04738
 -5.11706   0.22777   0.06065   0.08309   0.05922
 -5.06689   0.22786   0.05990   0.08242   0.06379
 -5.01672   0.23130   0.05872   0.08193   0.06761
 -4.96656   0.23658   0.05968   0.08177   0.07220
 -4.91639   0.23528   0.06449   0.08095   0.07334
 -4.86622   0.24166   0.07103   0.08073   0.07580
 -4.81605   0.23258   0.06690   0.07484   0.07223
 -4.76589   0.22622   0.06832   0.07084   0.07091
 -4.71572   0.22617   0.06863   0.07112   0.07054
 -4.66555   0.22148   0.06466   0.07284   0.06889
 -4.61538   0.22431   0.06151   0.07510   0.06891
 -4.56522   0.22342   0.06300   0.06523   0.06072
 -4.51505   0.22224   0.06159   0.06450   0.05755
 -4.46488   0.21641   0.05653   0.06100   0.05113
 -4.41472   0.21816   0.05159   0.05488   0.04901
 -4.36455   0.18716   0.04901   0.05481   0.04206
 -4.31438   0.18751   0.05675   0.05887   0.04372
 -4.26421   0.18577   0.06126   0.05576   0.04643
 -4.21405   0.16442   0.06203   0.05004   0.04454
 -4.16388   0.15664   0.05582   0.04952   0.03938
 -4.11371   0.11859   0.05098   0.04715   0.03588
 -4.06355   0.06406   0.04386   0.03216   0.03270
 -4.01338   0.05415   0.05020   0.04024   0.04074
 -3.96321   0.06968   0.06052   0.05683   0.06283
 -3.91304   0.04908   0.06815   0.06037   0.08226
 -3.86288   0.04617   0.07048   0.06413   0.08510
 -3.81271   0.04071   0.07144   0.07067   0.08708
 -3.76254   0.03631   0.07281   0.06703   0.08872
 -3.71237   0.03501   0.06580   0.05672   0.07308
 -3.66221   0.03908   0.07096   0.06137   0.07296
 -3.61204   0.05530   0.10813   0.08948   0.10320
 -3.56187   0.06587   0.14121   0.10382   0.11822
 -3.51171   0.07115   0.15901   0.11229   0.12567
 -3.46154   0.06185   0.14931   0.10537   0.10805
 -3.41137   0.05283   0.13469   0.09086   0.09001
 -3.36120   0.08590   0.22559   0.14084   0.14754
 -3.31104   0.09082   0.22555   0.13163   0.14004
 -3.26087   0.08317   0.20619   0.10491   0.11508
 -3.21070   0.07514   0.16498   0.08888   0.10704
 -3.16054   0.07938   0.14646   0.11106   0.13273
 -3.11037   0.08010   0.16241   0.13905   0.16343
 -3.06020   0.09368   0.18293   0.15850   0.19766
 -3.01003   0.10464   0.21687   0.15110   0.18590
 -2.95987   0.09458   0.17137   0.10529   0.12604
 -2.90970   0.04504   0.08451   0.05404   0.07605
 -2.85953   0.06197   0.13385   0.06600   0.09598
 -2.80936   0.07971   0.17553   0.08389   0.11312
 -2.75920   0.08328   0.19443   0.07603   0.10781
 -2.70903   0.07461   0.20446   0.08652   0.10472
 -2.65886   0.08086   0.24468   0.09578   0.13583
 -2.60870   0.06598   0.24779   0.09594   0.13991
 -2.55853   0.05859   0.21085   0.09230   0.13318
 -2.50836   0.04193   0.15972   0.08139   0.11000
 -2.45819   0.03632   0.13609   0.06229   0.09508
 -2.40803   0.03071   0.09528   0.05133   0.09673
 -2.35786   0.03300   0.09669   0.05160   0.08491
 -2.30769   0.02791   0.07698   0.03955   0.06336
 -2.25753   0.03390   0.08109   0.04272   0.09198
 -2.20736   0.03992   0.09168   0.05085   0.13772
 -2.15719   0.04181   0.10857   0.06788   0.17250
 -2.10702   0.04066   0.10249   0.06813   0.14641
 -2.05686   0.03927   0.09610   0.06877   0.12924
 -2.00669   0.04578   0.08818   0.06222   0.10673
 -1.95652   0.04185   0.07333   0.04795   0.08243
 -1.90635   0.03085   0.08056   0.04274   0.07729
 -1.85619   0.02649   0.08437   0.02975   0.07207
 -1.80602   0.02461   0.09170   0.02309   0.07130
 -1.75585   0.03344   0.12828   0.02481   0.07911
 -1.70569   0.03179   0.12896   0.02370   0.07375
 -1.65552   0.03492   0.13978   0.02528   0.08808
 -1.60535   0.03480   0.11967   0.02298   0.08283
 -1.55518   0.03445   0.12967   0.02744   0.09559
 -1.50502   0.04291   0.17034   0.03807   0.12482
 -1.45485   0.05213   0.20068   0.05278   0.16268
 -1.40468   0.04870   0.18638   0.05426   0.15671
 -1.35452   0.04563   0.17239   0.05317   0.14685
 -1.30435   0.04226   0.15578   0.05202   0.13618
 -1.25418   0.04686   0.15861   0.04831   0.12525
 -1.20401   0.04253   0.14106   0.05174   0.13130
 -1.15385   0.04379   0.14467   0.06348   0.15346
 -1.10368   0.04964   0.18886   0.10113   0.21839
 -1.05351   0.05146   0.17895   0.09701   0.22181
 -1.00334   0.05073   0.14442   0.09578   0.19368
 -0.95318   0.04300   0.11345   0.08173   0.16566
 -0.90301   0.03670   0.09406   0.07448   0.14180
 -0.85284   0.03745   0.08153   0.07003   0.14028
 -0.80268   0.03567   0.07008   0.05932   0.12701
 -0.75251   0.04200   0.07069   0.06946   0.12635
 -0.70234   0.03697   0.06596   0.06926   0.10991
 -0.65217   0.02334   0.05576   0.06106   0.08852
 -0.60201   0.01845   0.04952   0.04957   0.07171
 -0.55184   0.01641   0.04621   0.04138   0.05817
 -0.50167   0.01725   0.04551   0.04457   0.05672
 -0.45151   0.03414   0.08837   0.10426   0.10015
 -0.40134   0.04956   0.14270   0.15903   0.12044
 -0.35117   0.05589   0.12605   0.17666   0.14370
 -0.30100   0.05848   0.08949   0.19622   0.12419
 -0.25084   0.04679   0.06136   0.14586   0.10059
 -0.20067   0.05158   0.06707   0.15107   0.12492
 -0.15050   0.04779   0.06384   0.13875   0.11581
 -0.10033   0.04515   0.05638   0.13795   0.10293
 -0.05017   0.04654   0.05787   0.15350   0.09697
 -0.00000   0.04919   0.06433   0.16857   0.09369
  0.05017   0.04684   0.05931   0.16174   0.08316
  0.10033   0.04545   0.05232   0.15132   0.07361
  0.15050   0.04440   0.04942   0.13511   0.06844
  0.20067   0.04754   0.04991   0.12952   0.07004
  0.25084   0.05157   0.05409   0.13220   0.07189
  0.30100   0.05875   0.05823   0.13629   0.07456
  0.35117   0.05910   0.05837   0.12836   0.06974
  0.40134   0.05830   0.05745   0.11938   0.06269
  0.45151   0.07356   0.06645   0.12039   0.07090
  0.50167   0.07644   0.06973   0.09554   0.07066
  0.55184   0.07436   0.06546   0.08952   0.07094
  0.60201   0.08760   0.07300   0.09281   0.07996
  0.65217   0.07769   0.06788   0.08088   0.07452
  0.70234   0.07024   0.06059   0.07318   0.06822
  0.75251   0.07241   0.05910   0.07005   0.06456
  0.80268   0.07263   0.05640   0.06778   0.06244
  0.85284   0.07587   0.05286   0.07011   0.06005
  0.90301   0.07696   0.04828   0.06524   0.05796
  0.95318   0.08718   0.04851   0.07138   0.05808
  1.00334   0.09530   0.04651   0.07431   0.05833
  1.05351   0.11750   0.04382   0.07765   0.06232
  1.10368   0.11378   0.04132   0.07620   0.05842
  1.15385   0.10730   0.03711   0.07000   0.05448
  1.20401   0.10587   0.03514   0.06549   0.05252
  1.25418   0.10570   0.03515   0.06155   0.05206
  1.30435   0.14010   0.03765   0.06142   0.05570
  1.35452   0.20864   0.04237   0.06557   0.06624
  1.40468   0.26098   0.04888   0.07155   0.08316
  1.45485   0.31430   0.05609   0.07702   0.09107
  1.50502   0.35314   0.06587   0.09202   0.10146
  1.55518   0.29380   0.06403   0.08122   0.09740
  1.60535   0.27957   0.07067   0.08485   0.10702
  1.65552   0.27168   0.06919   0.08482   0.09351
  1.70569   0.27294   0.07380   0.09439   0.09839
  1.75585   0.26234   0.07795   0.10642   0.10179
  1.80602   0.24823   0.07882   0.10110   0.10254
  1.85619   0.23767   0.08064   0.10186   0.10308
  1.90635   0.22012   0.07514   0.10451   0.10248
  1.95652   0.20401   0.07191   0.10628   0.10496
  2.00669   0.19206   0.07056   0.10707   0.10075
  2.05686   0.17806   0.06749   0.10282   0.09308
  2.10702   0.17635   0.06943   0.10664   0.09245
  2.15719   0.18937   0.07694   0.11673   0.10224
  2.20736   0.19354   0.07819   0.12343   0.10781
  2.25753   0.17331   0.07192   0.11737   0.10098
  2.30769   0.17637   0.07082   0.12544   0.09899
  2.35786   0.18644   0.07615   0.13567   0.10105
  2.40803   0.17117   0.06869   0.12331   0.09932
  2.45819   0.16427   0.06679   0.12346   0.09976
  2.50836   0.15991   0.06812   0.12530   0.10202
  2.55853   0.15795   0.07067   0.12654   0.10661
  2.60870   0.15398   0.07458   0.12823   0.11559
  2.65886   0.14730   0.07515   0.12482   0.11832
  2.70903   0.14507   0.07589   0.12459   0.12105
  2.75920   0.14677   0.08080   0.12915   0.12575
  2.80936   0.14907   0.08371   0.13305   0.12770
  2.85953   0.15413   0.08868   0.13913   0.13741
  2.90970   0.15120   0.09103   0.13786   0.14023
  2.95987   0.14622   0.09163   0.13524   0.14220
  3.01003   0.14748   0.09684   0.14123   0.14909
  3.06020   0.14532   0.10334   0.14610   0.15401
  3.11037   0.13833   0.10345   0.14512   0.15725
  3.16054   0.13698   0.10241   0.14541   0.16091
  3.21070   0.13652   0.10268   0.14335   0.16138
  3.26087   0.13280   0.10491   0.14269   0.16778
  3.31104   0.12973   0.10694   0.14371   0.17676
  3.36120   0.13005   0.11514   0.14324   0.19190
  3.41137   0.12950   0.12059   0.14764   0.20249
  3.46154   0.12614   0.12448   0.15064   0.19995
  3.51171   0.12364   0.13147   0.15377   0.20038
  3.56187   0.12432   0.13375   0.15286   0.20309
  3.61204   0.11892   0.12968   0.14646   0.19921
  3.66221   0.11574   0.12800   0.14293   0.19609
  3.71237   0.11726   0.13270   0.14497   0.19309
  3.76254   0.11807   0.13365   0.15566   0.19248
  3.81271   0.11946   0.13606   0.16659   0.19397
  3.86288   0.12037   0.13564   0.17551   0.19367
  3.91304   0.12260   0.13884   0.18632   0.19091
  3.96321   0.11589   0.13679   0.17788   0.18657
  4.01338   0.11216   0.13754   0.18209   0.18434
  4.06355   0.11455   0.13880   0.19132   0.18946
  4.11371   0.11264   0.14091   0.20698   0.19852
  4.16388   0.10183   0.13392   0.20119   0.19859
  4.21405   0.10469   0.13372   0.21559   0.20725
  4.26421   0.10138   0.12875   0.19975   0.19556
  4.31438   0.10066   0.12800   0.19852   0.18510
  4.36455   0.10335   0.13307   0.21379   0.18336
  4.41472   0.09531   0.12605   0.20028   0.17779
  4.46488   0.08859   0.12234   0.18766   0.16548
  4.51505   0.09464   0.13257   0.19871   0.17002
  4.56522   0.09945   0.14141   0.20710   0.17925
  4.61538   0.09919   0.14459   0.20599   0.17817
  4.66555   0.09873   0.15153   0.21009   0.16508
  4.71572   0.09756   0.15525   0.19228   0.16386
  4.76589   0.09306   0.15190   0.17274   0.16087
  4.81605   0.08882   0.14494   0.17595   0.15478
  4.86622   0.08756   0.14439   0.18560   0.14464
  4.91639   0.08122   0.13349   0.17380   0.13388
  4.96656   0.07983   0.13503   0.17334   0.13990
  5.01672   0.07793   0.13411   0.16865   0.14015
      5.01672241     -10.03344482   301       6.22340000       1.00000000; Z= 49; 5s 5p_y 5p_z 5p_x 
-10.03344   0.00000   0.00000   0.00000   0.00000
 -9.98328   0.01417   0.00028   0.00079   0.00025
 -9.93311   0.02046   0.00073   0.00177   0.00058
 -9.88294   0.02478   0.00128   0.00285   0.00095
 -9.83278   0.02916   0.00187   0.00402   0.00136
 -9.78261   0.03281   0.00251   0.00522   0.00179
 -9.73244   0.03614   0.00315   0.00642   0.00224
 -9.68227   0.03957   0.00382   0.00768   0.00272
 -9.63211   0.04285   0.00450   0.00898   0.00321
 -9.58194   0.04580   0.00520   0.01021   0.00373
 -9.53177   0.04896   0.00598   0.01149   0.00424
 -9.48161   0.05391   0.00749   0.01280   0.00477
 -9.43144   0.05487   0.00718   0.01419   0.00532
 -9.38127   0.05797   0.00686   0.01548   0.00666
 -9.33110   0.06175   0.00861   0.01673   0.00694
 -9.28094   0.06249   0.00960   0.01798   0.00664
 -9.23077   0.06271   0.01034   0.01917   0.00629
 -9.18060   0.06692   0.01110   0.02039   0.00749
 -9.13043   0.07096   0.01193   0.02162   0.00858
 -9.08027   0.07343   0.01264   0.02276   0.00922
 -9.03010   0.07613   0.01349   0.02391   0.00983
 -8.97993   0.07885   0.01436   0.02504   0.01042
 -8.92977   0.08130   0.01521   0.02620   0.01097
 -8.87960   0.08444   0.01628   0.02741   0.01171
 -8.82943   0.08920   0.01724   0.03099   0.01240
 -8.77926   0.09411   0.01857   0.03364   0.01318
 -8.72910   0.09667   0.02000   0.03316   0.01391
 -8.67893   0.09687   0.02065   0.03254   0.01422
 -8.62876   0.09449   0.02035   0.03204   0.01420
 -8.57860   0.09440   0.02074   0.03142   0.01467
 -8.52843   0.09650   0.02179   0.03095   0.01567
 -8.47826   0.10037   0.02290   0.03227   0.01654
 -8.42809   0.10761   0.02411   0.03672   0.01742
 -8.37793   0.11351   0.02590   0.03832   0.01843
 -8.32776   0.11543   0.02699   0.03881   0.01843
 -8.27759   0.12386   0.02938   0.04298   0.01897
 -8.22742   0.13189   0.03163   0.04690   0.01972
 -8.17726   0.12785   0.03162   0.04261   0.02014
 -8.12709   0.13102   0.03223   0.04156   0.02118
 -8.07692   0.13667   0.03257   0.04320   0.02287
 -8.02676   0.12923   0.03294   0.03856   0.02290
 -7.97659   0.12458   0.03296   0.03509   0.02311
 -7.92642   0.12095   0.03325   0.03199   0.02379
 -7.87625   0.10947   0.03304   0.02686   0.02350
 -7.82609   0.09672   0.03270   0.01971   0.02296
 -7.77592   0.09702   0.03412   0.02071   0.02313
 -7.72575   0.09961   0.03479   0.02435   0.02378
 -7.67559   0.11012   0.03701   0.03404   0.02565
 -7.62542   0.12498   0.03962   0.04448   0.02727
 -7.57525   0.14780   0.04264   0.06266   0.03128
 -7.52508   0.15358   0.04337   0.06796   0.03339
 -7.47492   0.14644   0.04145   0.06057   0.03292
 -7.42475   0.14664   0.04172   0.05837   0.03296
 -7.37458   0.14249   0.04007   0.05411   0.03246
 -7.32441   0.14200   0.03924   0.05273   0.03301
 -7.27425   0.14296   0.03873   0.05239   0.03350
 -7.22408   0.14349   0.03825   0.05001   0.03315
 -7.17391   0.14438   0.03809   0.05145   0.03325
 -7.12375   0.14629   0.03982   0.05165   0.03329
 -7.07358   0.15839   0.04282   0.05680   0.03439
 -7.02341   0.16252   0.04328   0.05885   0.03577
 -6.97324   0.16112   0.04234   0.05851   0.03745
 -6.92308   0.16019   0.04110   0.05898   0.03855
 -6.87291   0.17138   0.04269   0.06276   0.04308
 -6.82274   0.17809   0.04471   0.06486   0.04857
 -6.77258   0.17335   0.04393   0.06223   0.04959
 -6.72241   0.16957   0.04466   0.05974   0.04774
 -6.67224   0.17686   0.04850   0.06106   0.04692
 -6.62207   0.18681   0.05355   0.06692   0.04371
 -6.57191   0.18775   0.05629   0.07073   0.04026
 -6.52174   0.17363   0.05243   0.06599   0.03683
 -6.47157   0.17499   0.05211   0.06638   0.03828
 -6.42140   0.19033   0.05483   0.07110   0.04401
 -6.37124   0.21011   0.05639   0.07257   0.04997
 -6.32107   0.21545   0.05915   0.07312   0.04897
 -6.27090   0.20414   0.05721   0.07054   0.04500
 -6.22074   0.21672   0.05821   0.07358   0.04981
 -6.17057   0.22630   0.05886   0.07269   0.05238
 -6.12040   0.23329   0.06014   0.07102   0.05292
 -6.07023   0.23591   0.06229   0.07028   0.05164
 -6.02007   0.24692   0.06663   0.07257   0.05424
 -5.96990   0.24335   0.06855   0.07396   0.05051
 -5.91973   0.23904   0.06679   0.07422   0.04837
 -5.86957   0.24402   0.06627   0.07354   0.05142
 -5.81940   0.24197   0.06903   0.07369   0.04998
 -5.76923   0.24622   0.07513   0.07614   0.04920
 -5.71906   0.23671   0.07175   0.07233   0.04701
 -5.66890   0.22778   0.06721   0.06875   0.04600
 -5.61873   0.23008   0.07014   0.07174   0.04633
 -5.56856   0.22937   0.06959   0.07670   0.05046
 -5.51839   0.21671   0.06548   0.07624   0.04953
 -5.46823   0.19757   0.05958   0.07424   0.04535
 -5.41806   0.20691   0.06183   0.07965   0.05084
 -5.36789   0.21307   0.06393   0.08245   0.05384
 -5.31773   0.22784   0.06927   0.08654   0.05805
 -5.26756   0.22112   0.06488   0.08391   0.05521
 -5.21739   0.20698   0.06225   0.07930   0.04937
 -5.16722   0.19968   0.06048   0.07613   0.04738
 -5.11706   0.22777   0.06065   0.08309   0.05922
 -5.06689   0.22786   0.05989   0.08242   0.06378
 -5.01672   0.23130   0.05871   0.08193   0.06760
 -4.96656   0.23659   0.05968   0.08177   0.07220
 -4.91639   0.23528   0.06449   0.08095   0.07333
 -4.86622   0.24166   0.07103   0.08073   0.07580
 -4.81605   0.23259   0.06690   0.07484   0.07223
 -4.76589   0.22622   0.06832   0.07084   0.07090
 -4.71572   0.22617   0.06863   0.07112   0.07054
 -4.66555   0.22148   0.06466   0.07284   0.06889