  16  16   0   0
  0.2197969E+02  0.6993300E-09  0.6993300E-09  0.7190800E-09  0.5000000E-15
  1.000000000000000E-004
  CAR 
 CoGa3                                   
     10.58538444     -4.72794135  301      6.39409102      1.00000000
     -4.728  0.0000E+00  0.0000E+00
     -4.677  0.0000E+00  0.0000E+00
     -4.626  0.0000E+00  0.0000E+00
     -4.575  0.0000E+00  0.0000E+00
     -4.524  0.0000E+00  0.0000E+00
     -4.473  0.0000E+00  0.0000E+00
     -4.422  0.0000E+00  0.0000E+00
     -4.371  0.0000E+00  0.0000E+00
     -4.320  0.0000E+00  0.0000E+00
     -4.269  0.0000E+00  0.0000E+00
     -4.217  0.0000E+00  0.0000E+00
     -4.166  0.0000E+00  0.0000E+00
     -4.115  0.0000E+00  0.0000E+00
     -4.064  0.0000E+00  0.0000E+00
     -4.013  0.5451E-01  0.3373E-03
     -3.962  0.5096E+00  0.1533E-01
     -3.911  0.6148E+00  0.4358E-01
     -3.860  0.8456E+00  0.8084E-01
     -3.809  0.9299E+00  0.1269E+00
     -3.758  0.1035E+01  0.1768E+00
     -3.707  0.1150E+01  0.2326E+00
     -3.656  0.1273E+01  0.2944E+00
     -3.605  0.1351E+01  0.3617E+00
     -3.554  0.1423E+01  0.4324E+00
     -3.503  0.1498E+01  0.5070E+00
     -3.452  0.1585E+01  0.5856E+00
     -3.401  0.1783E+01  0.6697E+00
     -3.350  0.2028E+01  0.7676E+00
     -3.299  0.2261E+01  0.8828E+00
     -3.248  0.2130E+01  0.9933E+00
     -3.197  0.2028E+01  0.1100E+01
     -3.146  0.1870E+01  0.1199E+01
     -3.095  0.1783E+01  0.1292E+01
     -3.043  0.1941E+01  0.1384E+01
     -2.992  0.1863E+01  0.1483E+01
     -2.941  0.2478E+01  0.1593E+01
     -2.890  0.2412E+01  0.1716E+01
     -2.839  0.2579E+01  0.1844E+01
     -2.788  0.2601E+01  0.1985E+01
     -2.737  0.2896E+01  0.2123E+01
     -2.686  0.3701E+01  0.2289E+01
     -2.635  0.3465E+01  0.2479E+01
     -2.584  0.3215E+01  0.2644E+01
     -2.533  0.3072E+01  0.2805E+01
     -2.482  0.3034E+01  0.2961E+01
     -2.431  0.2801E+01  0.3110E+01
     -2.380  0.2677E+01  0.3249E+01
     -2.329  0.2793E+01  0.3386E+01
     -2.278  0.2428E+01  0.3523E+01
     -2.227  0.2049E+01  0.3637E+01
     -2.176  0.1609E+01  0.3732E+01
     -2.125  0.1573E+01  0.3809E+01
     -2.074  0.1086E+01  0.3876E+01
     -2.023  0.1067E+01  0.3931E+01
     -1.972  0.1678E+01  0.4009E+01
     -1.920  0.2132E+01  0.4109E+01
     -1.869  0.2772E+01  0.4232E+01
     -1.818  0.4154E+01  0.4436E+01
     -1.767  0.4271E+01  0.4654E+01
     -1.716  0.4160E+01  0.4869E+01
     -1.665  0.3637E+01  0.5076E+01
     -1.614  0.3539E+01  0.5257E+01
     -1.563  0.3463E+01  0.5438E+01
     -1.512  0.3224E+01  0.5608E+01
     -1.461  0.3074E+01  0.5770E+01
     -1.410  0.3062E+01  0.5928E+01
     -1.359  0.3057E+01  0.6084E+01
     -1.308  0.2952E+01  0.6236E+01
     -1.257  0.2849E+01  0.6383E+01
     -1.206  0.2892E+01  0.6536E+01
     -1.155  0.2770E+01  0.6682E+01
     -1.104  0.2811E+01  0.6824E+01
     -1.053  0.2939E+01  0.6974E+01
     -1.002  0.2884E+01  0.7128E+01
     -0.951  0.3034E+01  0.7278E+01
     -0.900  0.3487E+01  0.7456E+01
     -0.849  0.3311E+01  0.7628E+01
     -0.798  0.3821E+01  0.7808E+01
     -0.746  0.3463E+01  0.7997E+01
     -0.695  0.3651E+01  0.8178E+01
     -0.644  0.3896E+01  0.8372E+01
     -0.593  0.4347E+01  0.8583E+01
     -0.542  0.4451E+01  0.8817E+01
     -0.491  0.4991E+01  0.9064E+01
     -0.440  0.5210E+01  0.9324E+01
     -0.389  0.5493E+01  0.9595E+01
     -0.338  0.5927E+01  0.9888E+01
     -0.287  0.5950E+01  0.1019E+02
     -0.236  0.5780E+01  0.1049E+02
     -0.185  0.5578E+01  0.1078E+02
     -0.134  0.5767E+01  0.1107E+02
     -0.083  0.6557E+01  0.1138E+02
     -0.032  0.7050E+01  0.1174E+02
      0.019  0.6945E+01  0.1209E+02
      0.070  0.6583E+01  0.1244E+02
      0.121  0.6376E+01  0.1277E+02
      0.172  0.7376E+01  0.1312E+02
      0.223  0.8953E+01  0.1352E+02
      0.274  0.6970E+01  0.1396E+02
      0.325  0.6458E+01  0.1430E+02
      0.377  0.7202E+01  0.1463E+02
      0.428  0.8226E+01  0.1504E+02
      0.479  0.8352E+01  0.1547E+02
      0.530  0.5040E+01  0.1580E+02
      0.581  0.3377E+01  0.1600E+02
      0.632  0.4369E+01  0.1620E+02
      0.683  0.5176E+01  0.1646E+02
      0.734  0.5993E+01  0.1675E+02
      0.785  0.5686E+01  0.1704E+02
      0.836  0.6591E+01  0.1735E+02
      0.887  0.7173E+01  0.1768E+02
      0.938  0.9562E+01  0.1811E+02
      0.989  0.8650E+01  0.1861E+02
      1.040  0.7670E+01  0.1902E+02
      1.091  0.1110E+02  0.1949E+02
      1.142  0.1182E+02  0.2010E+02
      1.193  0.9153E+01  0.2061E+02
      1.244  0.9616E+01  0.2109E+02
      1.295  0.9589E+01  0.2159E+02
      1.346  0.8622E+01  0.2205E+02
      1.397  0.8107E+01  0.2248E+02
      1.448  0.7380E+01  0.2288E+02
      1.499  0.6250E+01  0.2323E+02
      1.551  0.5328E+01  0.2353E+02
      1.602  0.5127E+01  0.2379E+02
      1.653  0.1031E+02  0.2415E+02
      1.704  0.9838E+01  0.2471E+02
      1.755  0.7640E+01  0.2517E+02
      1.806  0.5023E+01  0.2549E+02
      1.857  0.9747E+01  0.2587E+02
      1.908  0.1133E+02  0.2642E+02
      1.959  0.9973E+01  0.2697E+02
      2.010  0.8874E+01  0.2745E+02
      2.061  0.6321E+01  0.2785E+02
      2.112  0.5757E+01  0.2816E+02
      2.163  0.7613E+01  0.2846E+02
      2.214  0.4365E+01  0.2876E+02
      2.265  0.4896E+01  0.2901E+02
      2.316  0.6096E+01  0.2928E+02
      2.367  0.8288E+01  0.2965E+02
      2.418  0.1273E+02  0.3021E+02
      2.469  0.1361E+02  0.3089E+02
      2.520  0.1562E+02  0.3166E+02
      2.571  0.1000E+02  0.3252E+02
      2.622  0.1231E+02  0.3308E+02
      2.673  0.1261E+02  0.3373E+02
      2.725  0.1419E+02  0.3443E+02
      2.776  0.1544E+02  0.3522E+02
      2.827  0.1284E+02  0.3590E+02
      2.878  0.1288E+02  0.3652E+02
      2.929  0.1896E+02  0.3749E+02
      2.980  0.1892E+02  0.3858E+02
      3.031  0.1785E+02  0.3949E+02
      3.082  0.1096E+02  0.4032E+02
      3.133  0.2745E+02  0.4099E+02
      3.184  0.2651E+02  0.4223E+02
      3.235  0.1734E+02  0.4313E+02
      3.286  0.1992E+02  0.4399E+02
      3.337  0.1457E+02  0.4560E+02
      3.388  0.2278E+02  0.4667E+02
      3.439  0.1664E+02  0.4785E+02
      3.490  0.2254E+02  0.4884E+02
      3.541  0.1914E+02  0.5005E+02
      3.592  0.1739E+02  0.5088E+02
      3.643  0.1785E+02  0.5186E+02
      3.694  0.2546E+02  0.5285E+02
      3.745  0.2257E+02  0.5425E+02
      3.796  0.1129E+02  0.5521E+02
      3.848  0.7680E+01  0.5563E+02
      3.899  0.5974E+01  0.5601E+02
      3.950  0.5530E+01  0.5629E+02
      4.001  0.8061E+01  0.5662E+02
      4.052  0.7721E+01  0.5704E+02
      4.103  0.7717E+01  0.5742E+02
      4.154  0.7229E+01  0.5780E+02
      4.205  0.5862E+01  0.5813E+02
      4.256  0.6262E+01  0.5842E+02
      4.307  0.7220E+01  0.5878E+02
      4.358  0.5757E+01  0.5910E+02
      4.409  0.5703E+01  0.5939E+02
      4.460  0.1024E+02  0.5980E+02
      4.511  0.1203E+02  0.6037E+02
      4.562  0.1146E+02  0.6101E+02
      4.613  0.9438E+01  0.6153E+02
      4.664  0.9501E+01  0.6200E+02
      4.715  0.1003E+02  0.6251E+02
      4.766  0.1137E+02  0.6306E+02
      4.817  0.1205E+02  0.6365E+02
      4.868  0.1358E+02  0.6431E+02
      4.919  0.9050E+01  0.6491E+02
      4.970  0.8515E+01  0.6533E+02
      5.022  0.8898E+01  0.6578E+02
      5.073  0.8398E+01  0.6623E+02
      5.124  0.7870E+01  0.6663E+02
      5.175  0.7135E+01  0.6703E+02
      5.226  0.5365E+01  0.6737E+02
      5.277  0.4520E+01  0.6763E+02
      5.328  0.1997E+01  0.6778E+02
      5.379  0.1355E+01  0.6786E+02
      5.430  0.1009E+01  0.6792E+02
      5.481  0.9619E+00  0.6797E+02
      5.532  0.0000E+00  0.6800E+02
      5.583  0.0000E+00  0.6800E+02
      5.634  0.0000E+00  0.6800E+02
      5.685  0.0000E+00  0.6800E+02
      5.736  0.0000E+00  0.6800E+02
      5.787  0.0000E+00  0.6800E+02
      5.838  0.0000E+00  0.6800E+02
      5.889  0.6018E+01  0.6809E+02
      5.940  0.1168E+02  0.6872E+02
      5.991  0.6375E+01  0.6924E+02
      6.042  0.1086E+02  0.6960E+02
      6.093  0.1316E+02  0.7039E+02
      6.145  0.6463E+01  0.7083E+02
      6.196  0.5899E+01  0.7113E+02
      6.247  0.5298E+01  0.7143E+02
      6.298  0.4093E+01  0.7166E+02
      6.349  0.3475E+01  0.7185E+02
      6.400  0.3002E+01  0.7202E+02
      6.451  0.1991E+01  0.7214E+02
      6.502  0.2006E+01  0.7224E+02
      6.553  0.1961E+01  0.7236E+02
      6.604  0.2049E+01  0.7246E+02
      6.655  0.2280E+01  0.7257E+02
      6.706  0.2832E+01  0.7270E+02
      6.757  0.3861E+01  0.7287E+02
      6.808  0.9796E+01  0.7315E+02
      6.859  0.7891E+01  0.7360E+02
      6.910  0.9829E+01  0.7406E+02
      6.961  0.1273E+02  0.7466E+02
      7.012  0.1046E+02  0.7527E+02
      7.063  0.8870E+01  0.7576E+02
      7.114  0.8320E+01  0.7620E+02
      7.165  0.8176E+01  0.7662E+02
      7.216  0.7910E+01  0.7703E+02
      7.267  0.7842E+01  0.7744E+02
      7.319  0.8165E+01  0.7785E+02
      7.370  0.9405E+01  0.7829E+02
      7.421  0.8684E+01  0.7876E+02
      7.472  0.7729E+01  0.7921E+02
      7.523  0.7407E+01  0.7957E+02
      7.574  0.9923E+01  0.7998E+02
      7.625  0.1058E+02  0.8048E+02
      7.676  0.1128E+02  0.8107E+02
      7.727  0.8159E+01  0.8161E+02
      7.778  0.8985E+01  0.8204E+02
      7.829  0.8849E+01  0.8249E+02
      7.880  0.9266E+01  0.8296E+02
      7.931  0.9457E+01  0.8343E+02
      7.982  0.9620E+01  0.8393E+02
      8.033  0.1076E+02  0.8444E+02
      8.084  0.1137E+02  0.8500E+02
      8.135  0.9978E+01  0.8558E+02
      8.186  0.1006E+02  0.8608E+02
      8.237  0.1039E+02  0.8661E+02
      8.288  0.8271E+01  0.8708E+02
      8.339  0.7582E+01  0.8748E+02
      8.390  0.6895E+01  0.8784E+02
      8.442  0.8160E+01  0.8825E+02
      8.493  0.9834E+01  0.8870E+02
      8.544  0.9840E+01  0.8921E+02
      8.595  0.8441E+01  0.8969E+02
      8.646  0.8127E+01  0.9011E+02
      8.697  0.8862E+01  0.9054E+02
      8.748  0.8799E+01  0.9099E+02
      8.799  0.8925E+01  0.9145E+02
      8.850  0.9475E+01  0.9197E+02
      8.901  0.6884E+01  0.9232E+02
      8.952  0.8221E+01  0.9270E+02
      9.003  0.9358E+01  0.9316E+02
      9.054  0.7323E+01  0.9359E+02
      9.105  0.6627E+01  0.9394E+02
      9.156  0.6866E+01  0.9429E+02
      9.207  0.6597E+01  0.9465E+02
      9.258  0.5756E+01  0.9496E+02
      9.309  0.4760E+01  0.9522E+02
      9.360  0.4150E+01  0.9545E+02
      9.411  0.3038E+01  0.9563E+02
      9.462  0.1851E+01  0.9575E+02
      9.513  0.1326E+01  0.9583E+02
      9.564  0.1055E+01  0.9589E+02
      9.616  0.6439E+00  0.9594E+02
      9.667  0.5425E+00  0.9597E+02
      9.718  0.2419E+00  0.9599E+02
      9.769  0.1104E+00  0.9600E+02
      9.820  0.3923E-01  0.9600E+02
      9.871  0.2790E-02  0.9600E+02
      9.922  0.0000E+00  0.9600E+02
      9.973  0.0000E+00  0.9600E+02
     10.024  0.0000E+00  0.9600E+02
     10.075  0.0000E+00  0.9600E+02
     10.126  0.0000E+00  0.9600E+02
     10.177  0.0000E+00  0.9600E+02
     10.228  0.0000E+00  0.9600E+02
     10.279  0.0000E+00  0.9600E+02
     10.330  0.0000E+00  0.9600E+02
     10.381  0.0000E+00  0.9600E+02
     10.432  0.0000E+00  0.9600E+02
     10.483  0.0000E+00  0.9600E+02
     10.534  0.0000E+00  0.9600E+02
     10.585  0.0000E+00  0.9600E+02
